 vasp.5.4.4.18Apr17-6-g9f103f2a35 (build Jul 11 2022 12:07:16) complex          
  
 executed on             LinuxIFC date 2023.12.17  12:01:30
 running on    6 total cores
 distrk:  each k-point on    6 cores,    1 groups
 distr:  one band on NCORES_PER_BAND=   6 cores,    1 groups


--------------------------------------------------------------------------------------------------------


 INCAR:
 POTCAR:    PAW_PBE Cd 06Sep2000                  
 POTCAR:    PAW_PBE Mg_pv 13Apr2007               

 ----------------------------------------------------------------------------- 
|                                                                             |
|           W    W    AA    RRRRR   N    N  II  N    N   GGGG   !!!           |
|           W    W   A  A   R    R  NN   N  II  NN   N  G    G  !!!           |
|           W    W  A    A  R    R  N N  N  II  N N  N  G       !!!           |
|           W WW W  AAAAAA  RRRRR   N  N N  II  N  N N  G  GGG   !            |
|           WW  WW  A    A  R   R   N   NN  II  N   NN  G    G                |
|           W    W  A    A  R    R  N    N  II  N    N   GGGG   !!!           |
|                                                                             |
|      For optimal performance we recommend to set                            |
|        NCORE= 4 - approx SQRT( number of cores)                             |
|      NCORE specifies how many cores store one orbital (NPAR=cpu/NCORE).     |
|      This setting can  greatly improve the performance of VASP for DFT.     |
|      The default,   NCORE=1            might be grossly inefficient         |
|      on modern multi-core architectures or massively parallel machines.     |
|      Do your own testing !!!!                                               |
|      Unfortunately you need to use the default for GW and RPA calculations. |
|      (for HF NCORE is supported but not extensively tested yet)             |
|                                                                             |
 ----------------------------------------------------------------------------- 

 POTCAR:    PAW_PBE Cd 06Sep2000                  
   SHA256 =  8b7ca71966beae5276c8bb910adb3ecc013a3354c27473914c94cd54c83be4f7 Cd
   COPYR  = (c) Copyright 06Sep2000 Georg Kresse                                
   COPYR  = This file is part of the software VASP. Any use, copying, and all ot
   COPYR  = If you do not have a valid VASP license, you may not use, copy or di
   VRHFIN =Cd : s2 d10                                                          
   LEXCH  = PE                                                                  
   EATOM  =  1293.1815 eV,   95.0462 Ry                                         
                                                                                
   TITEL  = PAW_PBE Cd 06Sep2000                                                
   LULTRA =        F    use ultrasoft PP ?                                      
   IUNSCR =        1    unscreen: 0-lin 1-nonlin 2-no                           
   RPACOR =    2.000    partial core radius                                     
   POMASS =  112.411; ZVAL   =   12.000    mass and valenz                      
   RCORE  =    2.300    outmost cutoff radius                                   
   RWIGS  =    2.980; RWIGS  =    1.577    wigner-seitz radius (au A)           
   ENMAX  =  274.336; ENMIN  =  205.752 eV                                      
   RCLOC  =    2.054    cutoff for local pot                                    
   LCOR   =        T    correct aug charges                                     
   LPAW   =        T    paw PP                                                  
   EAUG   =  456.106                                                            
   DEXC   =    0.000                                                            
   RMAX   =    2.358    core radius for proj-oper                               
   RAUG   =    1.300    factor for augmentation sphere                          
   RDEP   =    2.450    radius for radial grids                                 
   RDEPT  =    1.955    core radius for aug-charge                              
                                                                                
   Atomic configuration                                                         
   12 entries                                                                   
     n  l   j            E        occ.                                          
     1  0  0.50    -26519.7817   2.0000                                         
     2  0  0.50     -3936.9612   2.0000                                         
     2  1  1.50     -3532.2230   6.0000                                         
     3  0  0.50      -733.7908   2.0000                                         
     3  1  1.50      -601.0792   6.0000                                         
     3  2  2.50      -393.5307  10.0000                                         
     4  0  0.50      -105.8977   2.0000                                         
     4  1  1.50       -66.9488   6.0000                                         
     4  2  2.50       -11.7331  10.0000                                         
     5  0  0.50        -5.6592   2.0000                                         
     5  1  0.50        -1.3606   0.0000                                         
     4  3  2.50        -1.3606   0.0000                                         
   Description                                                                  
     l       E           TYP  RCUT    TYP  RCUT                                 
     2    -11.7331479     23  2.300                                             
     2    -13.0937305     23  2.300                                             
     0     -5.6591502     23  2.300                                             
     0     -1.5561433     23  2.300                                             
     1     -2.7211652     23  2.300                                             
     1      8.3548275     23  2.300                                             
  local pseudopotential read in
  partial core-charges read in
  partial kinetic energy density read in
  atomic valenz-charges read in
  non local Contribution for L=           2  read in
    real space projection operators read in
  non local Contribution for L=           2  read in
    real space projection operators read in
  non local Contribution for L=           0  read in
    real space projection operators read in
  non local Contribution for L=           0  read in
    real space projection operators read in
  non local Contribution for L=           1  read in
    real space projection operators read in
  non local Contribution for L=           1  read in
    real space projection operators read in
    PAW grid and wavefunctions read in
 
   number of l-projection  operators is LMAX  =           6
   number of lm-projection operators is LMMAX =          18
 
 POTCAR:    PAW_PBE Mg_pv 13Apr2007               
   SHA256 =  f474ac0dd33840b9ae76c01d57fea79fdf77cdfbb07d5ade72c65f83c709b62b Mg
   COPYR  = (c) Copyright 13Apr2007 Georg Kresse                                
   COPYR  = This file is part of the software VASP. Any use, copying, and all ot
   COPYR  = If you do not have a valid VASP license, you may not use, copy or di
   VRHFIN =Mg: p6s2                                                             
   LEXCH  = PE                                                                  
   EATOM  =  1056.7344 eV,   77.6678 Ry                                         
                                                                                
   TITEL  = PAW_PBE Mg_pv 13Apr2007                                             
   LULTRA =        F    use ultrasoft PP ?                                      
   IUNSCR =        1    unscreen: 0-lin 1-nonlin 2-no                           
   RPACOR =    1.500    partial core radius                                     
   POMASS =   24.305; ZVAL   =    8.000    mass and valenz                      
   RCORE  =    2.000    outmost cutoff radius                                   
   RWIGS  =    2.000; RWIGS  =    1.058    wigner-seitz radius (au A)           
   ENMAX  =  403.929; ENMIN  =  302.947 eV                                      
   RCLOC  =    1.506    cutoff for local pot                                    
   LCOR   =        T    correct aug charges                                     
   LPAW   =        T    paw PP                                                  
   EAUG   =  758.780                                                            
   DEXC   =    0.000                                                            
   RMAX   =    2.045    core radius for proj-oper                               
   RAUG   =    1.300    factor for augmentation sphere                          
   RDEP   =    2.025    radius for radial grids                                 
   RDEPT  =    1.557    core radius for aug-charge                              
                                                                                
   Atomic configuration                                                         
    5 entries                                                                   
     n  l   j            E        occ.                                          
     1  0  0.50     -1259.6230   2.0000                                         
     2  0  0.50       -79.8442   2.0000                                         
     2  1  1.50       -46.6121   6.0000                                         
     3  0  0.50        -4.7055   2.0000                                         
     3  2  1.50        -1.3606   0.0000                                         
   Description                                                                  
     l       E           TYP  RCUT    TYP  RCUT                                 
     1    -46.6121073     23  1.600                                             
     1      2.7211652     23  1.600                                             
     0     -4.7054661     23  2.000                                             
     0     61.2262170     23  2.000                                             
     2     -1.3605826     23  2.000                                             
  local pseudopotential read in
  partial core-charges read in
  partial kinetic energy density read in
  atomic valenz-charges read in
  non local Contribution for L=           1  read in
    real space projection operators read in
  non local Contribution for L=           1  read in
    real space projection operators read in
  non local Contribution for L=           0  read in
    real space projection operators read in
  non local Contribution for L=           0  read in
    real space projection operators read in
  non local Contribution for L=           2  read in
    real space projection operators read in
    PAW grid and wavefunctions read in
 
   number of l-projection  operators is LMAX  =           5
   number of lm-projection operators is LMMAX =          13
 
  PAW_PBE Cd 06Sep2000                  :
 energy of atom  1       EATOM=-1293.1815
 kinetic energy error for atom=    0.0058 (will be added to EATOM!!)
  PAW_PBE Mg_pv 13Apr2007               :
 energy of atom  2       EATOM=-1056.7344
 kinetic energy error for atom=    0.0307 (will be added to EATOM!!)
 
 
 POSCAR:                                         
  positions in direct lattice
  velocities in cartesian coordinates
 exchange correlation table for  LEXCH =        8
   RHO(1)=    0.500       N(1)  =     2000
   RHO(2)=  100.500       N(2)  =     4000
 


--------------------------------------------------------------------------------------------------------


 ion  position               nearest neighbor table
   1  0.333  0.667  0.376-   4 3.07   4 3.07   4 3.07   2 3.13   2 3.13   2 3.13
   2  0.667  0.333  0.124-   3 3.07   3 3.07   3 3.07   1 3.13   1 3.13   1 3.13
   3  0.333  0.667  0.878-   2 3.07   2 3.07   2 3.07
   4  0.667  0.333  0.622-   1 3.07   1 3.07   1 3.07
 
  LATTYP: Found a hexagonal cell.
 ALAT       =     3.2318128999
 C/A-ratio  =     3.0717332132
  
  Lattice vectors:
  
 A1 = (   3.2318128958,   0.0000000001,   0.0000000000)
 A2 = (  -1.6159064428,   2.7988320697,   0.0000000000)
 A3 = (   0.0000000000,   0.0000000000,   9.9272670233)


Analysis of symmetry for initial positions (statically):
=====================================================================
 Subroutine PRICEL returns:
 Original cell was already a primitive cell.
 

 Routine SETGRP: Setting up the symmetry group for a 
 hexagonal supercell.


 Subroutine GETGRP returns: Found 12 space group operations
 (whereof  6 operations were pure point group operations)
 out of a pool of 24 trial point group operations.


The static configuration has the point symmetry C_3v.
 The point group associated with its full space group is D_3d.


Analysis of symmetry for dynamics (positions and initial velocities):
=====================================================================
 Subroutine PRICEL returns:
 Original cell was already a primitive cell.
 

 Routine SETGRP: Setting up the symmetry group for a 
 hexagonal supercell.


 Subroutine GETGRP returns: Found 12 space group operations
 (whereof  6 operations were pure point group operations)
 out of a pool of 24 trial point group operations.


The dynamic configuration has the point symmetry C_3v.
 The point group associated with its full space group is D_3d.


 Subroutine INISYM returns: Found 12 space group operations
 (whereof  6 operations are pure point group operations),
 and found     1 'primitive' translations

 
 
 KPOINTS: Automatic mesh                          

Automatic generation of k-mesh.
 generate k-points for:   25   25    7
Space group operators:
 irot       det(A)        alpha          n_x          n_y          n_z        tau_x        tau_y        tau_z
    1     1.000000     0.000000     1.000000     0.000000     0.000000     0.000000     0.000000     0.000000
    2     1.000000   120.000000     0.000000     0.000000    -1.000000     0.000000     0.000000     0.000000
    3     1.000000   120.000000     0.000000     0.000000     1.000000     0.000000     0.000000     0.000000
    4    -1.000000   180.000000     1.000000    -0.000000     0.000000     0.000000     0.000000     0.000000
    5    -1.000000   180.000000     0.500000    -0.866025     0.000000     0.000000     0.000000     0.000000
    6    -1.000000   180.000000    -0.500000    -0.866025     0.000000     0.000000     0.000000     0.000000
    7    -1.000000     0.000000     1.000000     0.000000     0.000000     0.000000     0.000000     0.500000
    8    -1.000000   120.000000     0.000000     0.000000    -1.000000     0.000000     0.000000     0.500000
    9    -1.000000   120.000000     0.000000     0.000000     1.000000     0.000000     0.000000     0.500000
   10     1.000000   180.000000     1.000000    -0.000000     0.000000     0.000000     0.000000     0.500000
   11     1.000000   180.000000     0.500000    -0.866025     0.000000     0.000000     0.000000     0.500000
   12     1.000000   180.000000    -0.500000    -0.866025     0.000000     0.000000     0.000000     0.500000
 
 Subroutine IBZKPT returns following result:
 ===========================================
 
 Found    416 irreducible k-points:
 
 Following reciprocal coordinates:
            Coordinates               Weight
  0.000000  0.000000  0.000000      1.000000
  0.040000  0.000000  0.000000      6.000000
  0.080000  0.000000  0.000000      6.000000
  0.120000 -0.000000  0.000000      6.000000
  0.160000  0.000000  0.000000      6.000000
  0.200000  0.000000  0.000000      6.000000
  0.240000 -0.000000  0.000000      6.000000
  0.280000  0.000000  0.000000      6.000000
  0.320000  0.000000  0.000000      6.000000
  0.360000 -0.000000  0.000000      6.000000
  0.400000  0.000000  0.000000      6.000000
  0.440000  0.000000  0.000000      6.000000
  0.480000 -0.000000  0.000000      6.000000
  0.040000  0.040000  0.000000      6.000000
  0.080000  0.040000  0.000000     12.000000
  0.120000  0.040000  0.000000     12.000000
  0.160000  0.040000  0.000000     12.000000
  0.200000  0.040000  0.000000     12.000000
  0.240000  0.040000  0.000000     12.000000
  0.280000  0.040000  0.000000     12.000000
  0.320000  0.040000  0.000000     12.000000
  0.360000  0.040000  0.000000     12.000000
  0.400000  0.040000  0.000000     12.000000
  0.440000  0.040000  0.000000     12.000000
  0.480000  0.040000  0.000000      6.000000
  0.080000  0.080000  0.000000      6.000000
  0.120000  0.080000  0.000000     12.000000
  0.160000  0.080000  0.000000     12.000000
  0.200000  0.080000  0.000000     12.000000
  0.240000  0.080000  0.000000     12.000000
  0.280000  0.080000  0.000000     12.000000
  0.320000  0.080000  0.000000     12.000000
  0.360000  0.080000  0.000000     12.000000
  0.400000  0.080000  0.000000     12.000000
  0.440000  0.080000  0.000000     12.000000
  0.120000  0.120000  0.000000      6.000000
  0.160000  0.120000  0.000000     12.000000
  0.200000  0.120000  0.000000     12.000000
  0.240000  0.120000  0.000000     12.000000
  0.280000  0.120000  0.000000     12.000000
  0.320000  0.120000  0.000000     12.000000
  0.360000  0.120000  0.000000     12.000000
  0.400000  0.120000  0.000000     12.000000
  0.440000  0.120000  0.000000      6.000000
  0.160000  0.160000  0.000000      6.000000
  0.200000  0.160000  0.000000     12.000000
  0.240000  0.160000  0.000000     12.000000
  0.280000  0.160000  0.000000     12.000000
  0.320000  0.160000  0.000000     12.000000
  0.360000  0.160000  0.000000     12.000000
  0.400000  0.160000  0.000000     12.000000
  0.200000  0.200000  0.000000      6.000000
  0.240000  0.200000  0.000000     12.000000
  0.280000  0.200000  0.000000     12.000000
  0.320000  0.200000  0.000000     12.000000
  0.360000  0.200000  0.000000     12.000000
  0.400000  0.200000  0.000000      6.000000
  0.240000  0.240000  0.000000      6.000000
  0.280000  0.240000  0.000000     12.000000
  0.320000  0.240000  0.000000     12.000000
  0.360000  0.240000  0.000000     12.000000
  0.280000  0.280000  0.000000      6.000000
  0.320000  0.280000  0.000000     12.000000
  0.360000  0.280000  0.000000      6.000000
  0.320000  0.320000  0.000000      6.000000
  0.000000  0.000000  0.142857      2.000000
  0.040000  0.000000  0.142857      6.000000
  0.080000  0.000000  0.142857      6.000000
  0.120000 -0.000000  0.142857      6.000000
  0.160000  0.000000  0.142857      6.000000
  0.200000  0.000000  0.142857      6.000000
  0.240000 -0.000000  0.142857      6.000000
  0.280000  0.000000  0.142857      6.000000
  0.320000  0.000000  0.142857      6.000000
  0.360000 -0.000000  0.142857      6.000000
  0.400000  0.000000  0.142857      6.000000
  0.440000  0.000000  0.142857      6.000000
  0.480000 -0.000000  0.142857      6.000000
 -0.480000  0.000000  0.142857      6.000000
 -0.440000  0.000000  0.142857      6.000000
 -0.400000  0.000000  0.142857      6.000000
 -0.360000  0.000000  0.142857      6.000000
 -0.320000  0.000000  0.142857      6.000000
 -0.280000 -0.000000  0.142857      6.000000
 -0.240000  0.000000  0.142857      6.000000
 -0.200000  0.000000  0.142857      6.000000
 -0.160000  0.000000  0.142857      6.000000
 -0.120000  0.000000  0.142857      6.000000
 -0.080000  0.000000  0.142857      6.000000
 -0.040000  0.000000  0.142857      6.000000
  0.040000  0.040000  0.142857     12.000000
  0.080000  0.040000  0.142857     12.000000
  0.120000  0.040000  0.142857     12.000000
  0.160000  0.040000  0.142857     12.000000
  0.200000  0.040000  0.142857     12.000000
  0.240000  0.040000  0.142857     12.000000
  0.280000  0.040000  0.142857     12.000000
  0.320000  0.040000  0.142857     12.000000
  0.360000  0.040000  0.142857     12.000000
  0.400000  0.040000  0.142857     12.000000
  0.440000  0.040000  0.142857     12.000000
  0.480000  0.040000  0.142857     12.000000
 -0.480000  0.040000  0.142857     12.000000
 -0.440000  0.040000  0.142857     12.000000
 -0.400000  0.040000  0.142857     12.000000
 -0.360000  0.040000  0.142857     12.000000
 -0.320000  0.040000  0.142857     12.000000
 -0.280000  0.040000  0.142857     12.000000
 -0.240000  0.040000  0.142857     12.000000
 -0.200000  0.040000  0.142857     12.000000
 -0.160000  0.040000  0.142857     12.000000
 -0.120000  0.040000  0.142857     12.000000
  0.080000  0.080000  0.142857     12.000000
  0.120000  0.080000  0.142857     12.000000
  0.160000  0.080000  0.142857     12.000000
  0.200000  0.080000  0.142857     12.000000
  0.240000  0.080000  0.142857     12.000000
  0.280000  0.080000  0.142857     12.000000
  0.320000  0.080000  0.142857     12.000000
  0.360000  0.080000  0.142857     12.000000
  0.400000  0.080000  0.142857     12.000000
  0.440000  0.080000  0.142857     12.000000
  0.480000  0.080000  0.142857     12.000000
 -0.480000  0.080000  0.142857     12.000000
 -0.440000  0.080000  0.142857     12.000000
 -0.400000  0.080000  0.142857     12.000000
 -0.360000  0.080000  0.142857     12.000000
 -0.320000  0.080000  0.142857     12.000000
 -0.280000  0.080000  0.142857     12.000000
 -0.240000  0.080000  0.142857     12.000000
 -0.200000  0.080000  0.142857     12.000000
  0.120000  0.120000  0.142857     12.000000
  0.160000  0.120000  0.142857     12.000000
  0.200000  0.120000  0.142857     12.000000
  0.240000  0.120000  0.142857     12.000000
  0.280000  0.120000  0.142857     12.000000
  0.320000  0.120000  0.142857     12.000000
  0.360000  0.120000  0.142857     12.000000
  0.400000  0.120000  0.142857     12.000000
  0.440000  0.120000  0.142857     12.000000
  0.480000  0.120000  0.142857     12.000000
 -0.480000  0.120000  0.142857     12.000000
 -0.440000  0.120000  0.142857     12.000000
 -0.400000  0.120000  0.142857     12.000000
 -0.360000  0.120000  0.142857     12.000000
 -0.320000  0.120000  0.142857     12.000000
 -0.280000  0.120000  0.142857     12.000000
  0.160000  0.160000  0.142857     12.000000
  0.200000  0.160000  0.142857     12.000000
  0.240000  0.160000  0.142857     12.000000
  0.280000  0.160000  0.142857     12.000000
  0.320000  0.160000  0.142857     12.000000
  0.360000  0.160000  0.142857     12.000000
  0.400000  0.160000  0.142857     12.000000
  0.440000  0.160000  0.142857     12.000000
  0.480000  0.160000  0.142857     12.000000
 -0.480000  0.160000  0.142857     12.000000
 -0.440000  0.160000  0.142857     12.000000
 -0.400000  0.160000  0.142857     12.000000
 -0.360000  0.160000  0.142857     12.000000
  0.200000  0.200000  0.142857     12.000000
  0.240000  0.200000  0.142857     12.000000
  0.280000  0.200000  0.142857     12.000000
  0.320000  0.200000  0.142857     12.000000
  0.360000  0.200000  0.142857     12.000000
  0.400000  0.200000  0.142857     12.000000
  0.440000  0.200000  0.142857     12.000000
  0.480000  0.200000  0.142857     12.000000
 -0.480000  0.200000  0.142857     12.000000
 -0.440000  0.200000  0.142857     12.000000
  0.240000  0.240000  0.142857     12.000000
  0.280000  0.240000  0.142857     12.000000
  0.320000  0.240000  0.142857     12.000000
  0.360000  0.240000  0.142857     12.000000
  0.400000  0.240000  0.142857     12.000000
  0.440000  0.240000  0.142857     12.000000
  0.480000  0.240000  0.142857     12.000000
  0.280000  0.280000  0.142857     12.000000
  0.320000  0.280000  0.142857     12.000000
  0.360000  0.280000  0.142857     12.000000
  0.400000  0.280000  0.142857     12.000000
  0.320000  0.320000  0.142857     12.000000
  0.000000  0.000000  0.285714      2.000000
  0.040000  0.000000  0.285714      6.000000
  0.080000  0.000000  0.285714      6.000000
  0.120000 -0.000000  0.285714      6.000000
  0.160000  0.000000  0.285714      6.000000
  0.200000  0.000000  0.285714      6.000000
  0.240000 -0.000000  0.285714      6.000000
  0.280000  0.000000  0.285714      6.000000
  0.320000  0.000000  0.285714      6.000000
  0.360000 -0.000000  0.285714      6.000000
  0.400000  0.000000  0.285714      6.000000
  0.440000  0.000000  0.285714      6.000000
  0.480000 -0.000000  0.285714      6.000000
 -0.480000  0.000000  0.285714      6.000000
 -0.440000  0.000000  0.285714      6.000000
 -0.400000  0.000000  0.285714      6.000000
 -0.360000  0.000000  0.285714      6.000000
 -0.320000  0.000000  0.285714      6.000000
 -0.280000 -0.000000  0.285714      6.000000
 -0.240000  0.000000  0.285714      6.000000
 -0.200000  0.000000  0.285714      6.000000
 -0.160000  0.000000  0.285714      6.000000
 -0.120000  0.000000  0.285714      6.000000
 -0.080000  0.000000  0.285714      6.000000
 -0.040000  0.000000  0.285714      6.000000
  0.040000  0.040000  0.285714     12.000000
  0.080000  0.040000  0.285714     12.000000
  0.120000  0.040000  0.285714     12.000000
  0.160000  0.040000  0.285714     12.000000
  0.200000  0.040000  0.285714     12.000000
  0.240000  0.040000  0.285714     12.000000
  0.280000  0.040000  0.285714     12.000000
  0.320000  0.040000  0.285714     12.000000
  0.360000  0.040000  0.285714     12.000000
  0.400000  0.040000  0.285714     12.000000
  0.440000  0.040000  0.285714     12.000000
  0.480000  0.040000  0.285714     12.000000
 -0.480000  0.040000  0.285714     12.000000
 -0.440000  0.040000  0.285714     12.000000
 -0.400000  0.040000  0.285714     12.000000
 -0.360000  0.040000  0.285714     12.000000
 -0.320000  0.040000  0.285714     12.000000
 -0.280000  0.040000  0.285714     12.000000
 -0.240000  0.040000  0.285714     12.000000
 -0.200000  0.040000  0.285714     12.000000
 -0.160000  0.040000  0.285714     12.000000
 -0.120000  0.040000  0.285714     12.000000
  0.080000  0.080000  0.285714     12.000000
  0.120000  0.080000  0.285714     12.000000
  0.160000  0.080000  0.285714     12.000000
  0.200000  0.080000  0.285714     12.000000
  0.240000  0.080000  0.285714     12.000000
  0.280000  0.080000  0.285714     12.000000
  0.320000  0.080000  0.285714     12.000000
  0.360000  0.080000  0.285714     12.000000
  0.400000  0.080000  0.285714     12.000000
  0.440000  0.080000  0.285714     12.000000
  0.480000  0.080000  0.285714     12.000000
 -0.480000  0.080000  0.285714     12.000000
 -0.440000  0.080000  0.285714     12.000000
 -0.400000  0.080000  0.285714     12.000000
 -0.360000  0.080000  0.285714     12.000000
 -0.320000  0.080000  0.285714     12.000000
 -0.280000  0.080000  0.285714     12.000000
 -0.240000  0.080000  0.285714     12.000000
 -0.200000  0.080000  0.285714     12.000000
  0.120000  0.120000  0.285714     12.000000
  0.160000  0.120000  0.285714     12.000000
  0.200000  0.120000  0.285714     12.000000
  0.240000  0.120000  0.285714     12.000000
  0.280000  0.120000  0.285714     12.000000
  0.320000  0.120000  0.285714     12.000000
  0.360000  0.120000  0.285714     12.000000
  0.400000  0.120000  0.285714     12.000000
  0.440000  0.120000  0.285714     12.000000
  0.480000  0.120000  0.285714     12.000000
 -0.480000  0.120000  0.285714     12.000000
 -0.440000  0.120000  0.285714     12.000000
 -0.400000  0.120000  0.285714     12.000000
 -0.360000  0.120000  0.285714     12.000000
 -0.320000  0.120000  0.285714     12.000000
 -0.280000  0.120000  0.285714     12.000000
  0.160000  0.160000  0.285714     12.000000
  0.200000  0.160000  0.285714     12.000000
  0.240000  0.160000  0.285714     12.000000
  0.280000  0.160000  0.285714     12.000000
  0.320000  0.160000  0.285714     12.000000
  0.360000  0.160000  0.285714     12.000000
  0.400000  0.160000  0.285714     12.000000
  0.440000  0.160000  0.285714     12.000000
  0.480000  0.160000  0.285714     12.000000
 -0.480000  0.160000  0.285714     12.000000
 -0.440000  0.160000  0.285714     12.000000
 -0.400000  0.160000  0.285714     12.000000
 -0.360000  0.160000  0.285714     12.000000
  0.200000  0.200000  0.285714     12.000000
  0.240000  0.200000  0.285714     12.000000
  0.280000  0.200000  0.285714     12.000000
  0.320000  0.200000  0.285714     12.000000
  0.360000  0.200000  0.285714     12.000000
  0.400000  0.200000  0.285714     12.000000
  0.440000  0.200000  0.285714     12.000000
  0.480000  0.200000  0.285714     12.000000
 -0.480000  0.200000  0.285714     12.000000
 -0.440000  0.200000  0.285714     12.000000
  0.240000  0.240000  0.285714     12.000000
  0.280000  0.240000  0.285714     12.000000
  0.320000  0.240000  0.285714     12.000000
  0.360000  0.240000  0.285714     12.000000
  0.400000  0.240000  0.285714     12.000000
  0.440000  0.240000  0.285714     12.000000
  0.480000  0.240000  0.285714     12.000000
  0.280000  0.280000  0.285714     12.000000
  0.320000  0.280000  0.285714     12.000000
  0.360000  0.280000  0.285714     12.000000
  0.400000  0.280000  0.285714     12.000000
  0.320000  0.320000  0.285714     12.000000
  0.000000  0.000000  0.428571      2.000000
  0.040000  0.000000  0.428571      6.000000
  0.080000  0.000000  0.428571      6.000000
  0.120000 -0.000000  0.428571      6.000000
  0.160000  0.000000  0.428571      6.000000
  0.200000  0.000000  0.428571      6.000000
  0.240000 -0.000000  0.428571      6.000000
  0.280000  0.000000  0.428571      6.000000
  0.320000  0.000000  0.428571      6.000000
  0.360000 -0.000000  0.428571      6.000000
  0.400000  0.000000  0.428571      6.000000
  0.440000  0.000000  0.428571      6.000000
  0.480000 -0.000000  0.428571      6.000000
 -0.480000  0.000000  0.428571      6.000000
 -0.440000  0.000000  0.428571      6.000000
 -0.400000  0.000000  0.428571      6.000000
 -0.360000  0.000000  0.428571      6.000000
 -0.320000  0.000000  0.428571      6.000000
 -0.280000 -0.000000  0.428571      6.000000
 -0.240000  0.000000  0.428571      6.000000
 -0.200000  0.000000  0.428571      6.000000
 -0.160000  0.000000  0.428571      6.000000
 -0.120000  0.000000  0.428571      6.000000
 -0.080000  0.000000  0.428571      6.000000
 -0.040000  0.000000  0.428571      6.000000
  0.040000  0.040000  0.428571     12.000000
  0.080000  0.040000  0.428571     12.000000
  0.120000  0.040000  0.428571     12.000000
  0.160000  0.040000  0.428571     12.000000
  0.200000  0.040000  0.428571     12.000000
  0.240000  0.040000  0.428571     12.000000
  0.280000  0.040000  0.428571     12.000000
  0.320000  0.040000  0.428571     12.000000
  0.360000  0.040000  0.428571     12.000000
  0.400000  0.040000  0.428571     12.000000
  0.440000  0.040000  0.428571     12.000000
  0.480000  0.040000  0.428571     12.000000
 -0.480000  0.040000  0.428571     12.000000
 -0.440000  0.040000  0.428571     12.000000
 -0.400000  0.040000  0.428571     12.000000
 -0.360000  0.040000  0.428571     12.000000
 -0.320000  0.040000  0.428571     12.000000
 -0.280000  0.040000  0.428571     12.000000
 -0.240000  0.040000  0.428571     12.000000
 -0.200000  0.040000  0.428571     12.000000
 -0.160000  0.040000  0.428571     12.000000
 -0.120000  0.040000  0.428571     12.000000
  0.080000  0.080000  0.428571     12.000000
  0.120000  0.080000  0.428571     12.000000
  0.160000  0.080000  0.428571     12.000000
  0.200000  0.080000  0.428571     12.000000
  0.240000  0.080000  0.428571     12.000000
  0.280000  0.080000  0.428571     12.000000
  0.320000  0.080000  0.428571     12.000000
  0.360000  0.080000  0.428571     12.000000
  0.400000  0.080000  0.428571     12.000000
  0.440000  0.080000  0.428571     12.000000
  0.480000  0.080000  0.428571     12.000000
 -0.480000  0.080000  0.428571     12.000000
 -0.440000  0.080000  0.428571     12.000000
 -0.400000  0.080000  0.428571     12.000000
 -0.360000  0.080000  0.428571     12.000000
 -0.320000  0.080000  0.428571     12.000000
 -0.280000  0.080000  0.428571     12.000000
 -0.240000  0.080000  0.428571     12.000000
 -0.200000  0.080000  0.428571     12.000000
  0.120000  0.120000  0.428571     12.000000
  0.160000  0.120000  0.428571     12.000000
  0.200000  0.120000  0.428571     12.000000
  0.240000  0.120000  0.428571     12.000000
  0.280000  0.120000  0.428571     12.000000
  0.320000  0.120000  0.428571     12.000000
  0.360000  0.120000  0.428571     12.000000
  0.400000  0.120000  0.428571     12.000000
  0.440000  0.120000  0.428571     12.000000
  0.480000  0.120000  0.428571     12.000000
 -0.480000  0.120000  0.428571     12.000000
 -0.440000  0.120000  0.428571     12.000000
 -0.400000  0.120000  0.428571     12.000000
 -0.360000  0.120000  0.428571     12.000000
 -0.320000  0.120000  0.428571     12.000000
 -0.280000  0.120000  0.428571     12.000000
  0.160000  0.160000  0.428571     12.000000
  0.200000  0.160000  0.428571     12.000000
  0.240000  0.160000  0.428571     12.000000
  0.280000  0.160000  0.428571     12.000000
  0.320000  0.160000  0.428571     12.000000
  0.360000  0.160000  0.428571     12.000000
  0.400000  0.160000  0.428571     12.000000
  0.440000  0.160000  0.428571     12.000000
  0.480000  0.160000  0.428571     12.000000
 -0.480000  0.160000  0.428571     12.000000
 -0.440000  0.160000  0.428571     12.000000
 -0.400000  0.160000  0.428571     12.000000
 -0.360000  0.160000  0.428571     12.000000
  0.200000  0.200000  0.428571     12.000000
  0.240000  0.200000  0.428571     12.000000
  0.280000  0.200000  0.428571     12.000000
  0.320000  0.200000  0.428571     12.000000
  0.360000  0.200000  0.428571     12.000000
  0.400000  0.200000  0.428571     12.000000
  0.440000  0.200000  0.428571     12.000000
  0.480000  0.200000  0.428571     12.000000
 -0.480000  0.200000  0.428571     12.000000
 -0.440000  0.200000  0.428571     12.000000
  0.240000  0.240000  0.428571     12.000000
  0.280000  0.240000  0.428571     12.000000
  0.320000  0.240000  0.428571     12.000000
  0.360000  0.240000  0.428571     12.000000
  0.400000  0.240000  0.428571     12.000000
  0.440000  0.240000  0.428571     12.000000
  0.480000  0.240000  0.428571     12.000000
  0.280000  0.280000  0.428571     12.000000
  0.320000  0.280000  0.428571     12.000000
  0.360000  0.280000  0.428571     12.000000
  0.400000  0.280000  0.428571     12.000000
  0.320000  0.320000  0.428571     12.000000
 
 Following cartesian coordinates:
            Coordinates               Weight
  0.000000  0.000000  0.000000      1.000000
  0.012377  0.007146  0.000000      6.000000
  0.024754  0.014292  0.000000      6.000000
  0.037131  0.021438  0.000000      6.000000
  0.049508  0.028583  0.000000      6.000000
  0.061885  0.035729  0.000000      6.000000
  0.074262  0.042875  0.000000      6.000000
  0.086639  0.050021  0.000000      6.000000
  0.099016  0.057167  0.000000      6.000000
  0.111393  0.064313  0.000000      6.000000
  0.123770  0.071458  0.000000      6.000000
  0.136146  0.078604  0.000000      6.000000
  0.148523  0.085750  0.000000      6.000000
  0.012377  0.021438  0.000000      6.000000
  0.024754  0.028583  0.000000     12.000000
  0.037131  0.035729  0.000000     12.000000
  0.049508  0.042875  0.000000     12.000000
  0.061885  0.050021  0.000000     12.000000
  0.074262  0.057167  0.000000     12.000000
  0.086639  0.064313  0.000000     12.000000
  0.099016  0.071458  0.000000     12.000000
  0.111393  0.078604  0.000000     12.000000
  0.123770  0.085750  0.000000     12.000000
  0.136146  0.092896  0.000000     12.000000
  0.148523  0.100042  0.000000      6.000000
  0.024754  0.042875  0.000000      6.000000
  0.037131  0.050021  0.000000     12.000000
  0.049508  0.057167  0.000000     12.000000
  0.061885  0.064313  0.000000     12.000000
  0.074262  0.071458  0.000000     12.000000
  0.086639  0.078604  0.000000     12.000000
  0.099016  0.085750  0.000000     12.000000
  0.111393  0.092896  0.000000     12.000000
  0.123770  0.100042  0.000000     12.000000
  0.136146  0.107188  0.000000     12.000000
  0.037131  0.064313  0.000000      6.000000
  0.049508  0.071458  0.000000     12.000000
  0.061885  0.078604  0.000000     12.000000
  0.074262  0.085750  0.000000     12.000000
  0.086639  0.092896  0.000000     12.000000
  0.099016  0.100042  0.000000     12.000000
  0.111393  0.107188  0.000000     12.000000
  0.123770  0.114333  0.000000     12.000000
  0.136146  0.121479  0.000000      6.000000
  0.049508  0.085750  0.000000      6.000000
  0.061885  0.092896  0.000000     12.000000
  0.074262  0.100042  0.000000     12.000000
  0.086639  0.107188  0.000000     12.000000
  0.099016  0.114333  0.000000     12.000000
  0.111393  0.121479  0.000000     12.000000
  0.123770  0.128625  0.000000     12.000000
  0.061885  0.107188  0.000000      6.000000
  0.074262  0.114333  0.000000     12.000000
  0.086639  0.121479  0.000000     12.000000
  0.099016  0.128625  0.000000     12.000000
  0.111393  0.135771  0.000000     12.000000
  0.123770  0.142917  0.000000      6.000000
  0.074262  0.128625  0.000000      6.000000
  0.086639  0.135771  0.000000     12.000000
  0.099016  0.142917  0.000000     12.000000
  0.111393  0.150063  0.000000     12.000000
  0.086639  0.150063  0.000000      6.000000
  0.099016  0.157208  0.000000     12.000000
  0.111393  0.164354  0.000000      6.000000
  0.099016  0.171500  0.000000      6.000000
  0.000000  0.000000  0.014390      2.000000
  0.012377  0.007146  0.014390      6.000000
  0.024754  0.014292  0.014390      6.000000
  0.037131  0.021438  0.014390      6.000000
  0.049508  0.028583  0.014390      6.000000
  0.061885  0.035729  0.014390      6.000000
  0.074262  0.042875  0.014390      6.000000
  0.086639  0.050021  0.014390      6.000000
  0.099016  0.057167  0.014390      6.000000
  0.111393  0.064313  0.014390      6.000000
  0.123770  0.071458  0.014390      6.000000
  0.136146  0.078604  0.014390      6.000000
  0.148523  0.085750  0.014390      6.000000
 -0.148523 -0.085750  0.014390      6.000000
 -0.136146 -0.078604  0.014390      6.000000
 -0.123770 -0.071458  0.014390      6.000000
 -0.111393 -0.064313  0.014390      6.000000
 -0.099016 -0.057167  0.014390      6.000000
 -0.086639 -0.050021  0.014390      6.000000
 -0.074262 -0.042875  0.014390      6.000000
 -0.061885 -0.035729  0.014390      6.000000
 -0.049508 -0.028583  0.014390      6.000000
 -0.037131 -0.021438  0.014390      6.000000
 -0.024754 -0.014292  0.014390      6.000000
 -0.012377 -0.007146  0.014390      6.000000
  0.012377  0.021438  0.014390     12.000000
  0.024754  0.028583  0.014390     12.000000
  0.037131  0.035729  0.014390     12.000000
  0.049508  0.042875  0.014390     12.000000
  0.061885  0.050021  0.014390     12.000000
  0.074262  0.057167  0.014390     12.000000
  0.086639  0.064313  0.014390     12.000000
  0.099016  0.071458  0.014390     12.000000
  0.111393  0.078604  0.014390     12.000000
  0.123770  0.085750  0.014390     12.000000
  0.136146  0.092896  0.014390     12.000000
  0.148523  0.100042  0.014390     12.000000
 -0.148523 -0.071458  0.014390     12.000000
 -0.136146 -0.064313  0.014390     12.000000
 -0.123770 -0.057167  0.014390     12.000000
 -0.111393 -0.050021  0.014390     12.000000
 -0.099016 -0.042875  0.014390     12.000000
 -0.086639 -0.035729  0.014390     12.000000
 -0.074262 -0.028583  0.014390     12.000000
 -0.061885 -0.021438  0.014390     12.000000
 -0.049508 -0.014292  0.014390     12.000000
 -0.037131 -0.007146  0.014390     12.000000
  0.024754  0.042875  0.014390     12.000000
  0.037131  0.050021  0.014390     12.000000
  0.049508  0.057167  0.014390     12.000000
  0.061885  0.064313  0.014390     12.000000
  0.074262  0.071458  0.014390     12.000000
  0.086639  0.078604  0.014390     12.000000
  0.099016  0.085750  0.014390     12.000000
  0.111393  0.092896  0.014390     12.000000
  0.123770  0.100042  0.014390     12.000000
  0.136146  0.107188  0.014390     12.000000
  0.148523  0.114333  0.014390     12.000000
 -0.148523 -0.057167  0.014390     12.000000
 -0.136146 -0.050021  0.014390     12.000000
 -0.123770 -0.042875  0.014390     12.000000
 -0.111393 -0.035729  0.014390     12.000000
 -0.099016 -0.028583  0.014390     12.000000
 -0.086639 -0.021438  0.014390     12.000000
 -0.074262 -0.014292  0.014390     12.000000
 -0.061885 -0.007146  0.014390     12.000000
  0.037131  0.064313  0.014390     12.000000
  0.049508  0.071458  0.014390     12.000000
  0.061885  0.078604  0.014390     12.000000
  0.074262  0.085750  0.014390     12.000000
  0.086639  0.092896  0.014390     12.000000
  0.099016  0.100042  0.014390     12.000000
  0.111393  0.107188  0.014390     12.000000
  0.123770  0.114333  0.014390     12.000000
  0.136146  0.121479  0.014390     12.000000
  0.148523  0.128625  0.014390     12.000000
 -0.148523 -0.042875  0.014390     12.000000
 -0.136146 -0.035729  0.014390     12.000000
 -0.123770 -0.028583  0.014390     12.000000
 -0.111393 -0.021438  0.014390     12.000000
 -0.099016 -0.014292  0.014390     12.000000
 -0.086639 -0.007146  0.014390     12.000000
  0.049508  0.085750  0.014390     12.000000
  0.061885  0.092896  0.014390     12.000000
  0.074262  0.100042  0.014390     12.000000
  0.086639  0.107188  0.014390     12.000000
  0.099016  0.114333  0.014390     12.000000
  0.111393  0.121479  0.014390     12.000000
  0.123770  0.128625  0.014390     12.000000
  0.136146  0.135771  0.014390     12.000000
  0.148523  0.142917  0.014390     12.000000
 -0.148523 -0.028583  0.014390     12.000000
 -0.136146 -0.021438  0.014390     12.000000
 -0.123770 -0.014292  0.014390     12.000000
 -0.111393 -0.007146  0.014390     12.000000
  0.061885  0.107188  0.014390     12.000000
  0.074262  0.114333  0.014390     12.000000
  0.086639  0.121479  0.014390     12.000000
  0.099016  0.128625  0.014390     12.000000
  0.111393  0.135771  0.014390     12.000000
  0.123770  0.142917  0.014390     12.000000
  0.136146  0.150063  0.014390     12.000000
  0.148523  0.157208  0.014390     12.000000
 -0.148523 -0.014292  0.014390     12.000000
 -0.136146 -0.007146  0.014390     12.000000
  0.074262  0.128625  0.014390     12.000000
  0.086639  0.135771  0.014390     12.000000
  0.099016  0.142917  0.014390     12.000000
  0.111393  0.150063  0.014390     12.000000
  0.123770  0.157208  0.014390     12.000000
  0.136146  0.164354  0.014390     12.000000
  0.148523  0.171500  0.014390     12.000000
  0.086639  0.150063  0.014390     12.000000
  0.099016  0.157208  0.014390     12.000000
  0.111393  0.164354  0.014390     12.000000
  0.123770  0.171500  0.014390     12.000000
  0.099016  0.171500  0.014390     12.000000
  0.000000  0.000000  0.028781      2.000000
  0.012377  0.007146  0.028781      6.000000
  0.024754  0.014292  0.028781      6.000000
  0.037131  0.021438  0.028781      6.000000
  0.049508  0.028583  0.028781      6.000000
  0.061885  0.035729  0.028781      6.000000
  0.074262  0.042875  0.028781      6.000000
  0.086639  0.050021  0.028781      6.000000
  0.099016  0.057167  0.028781      6.000000
  0.111393  0.064313  0.028781      6.000000
  0.123770  0.071458  0.028781      6.000000
  0.136146  0.078604  0.028781      6.000000
  0.148523  0.085750  0.028781      6.000000
 -0.148523 -0.085750  0.028781      6.000000
 -0.136146 -0.078604  0.028781      6.000000
 -0.123770 -0.071458  0.028781      6.000000
 -0.111393 -0.064313  0.028781      6.000000
 -0.099016 -0.057167  0.028781      6.000000
 -0.086639 -0.050021  0.028781      6.000000
 -0.074262 -0.042875  0.028781      6.000000
 -0.061885 -0.035729  0.028781      6.000000
 -0.049508 -0.028583  0.028781      6.000000
 -0.037131 -0.021438  0.028781      6.000000
 -0.024754 -0.014292  0.028781      6.000000
 -0.012377 -0.007146  0.028781      6.000000
  0.012377  0.021438  0.028781     12.000000
  0.024754  0.028583  0.028781     12.000000
  0.037131  0.035729  0.028781     12.000000
  0.049508  0.042875  0.028781     12.000000
  0.061885  0.050021  0.028781     12.000000
  0.074262  0.057167  0.028781     12.000000
  0.086639  0.064313  0.028781     12.000000
  0.099016  0.071458  0.028781     12.000000
  0.111393  0.078604  0.028781     12.000000
  0.123770  0.085750  0.028781     12.000000
  0.136146  0.092896  0.028781     12.000000
  0.148523  0.100042  0.028781     12.000000
 -0.148523 -0.071458  0.028781     12.000000
 -0.136146 -0.064313  0.028781     12.000000
 -0.123770 -0.057167  0.028781     12.000000
 -0.111393 -0.050021  0.028781     12.000000
 -0.099016 -0.042875  0.028781     12.000000
 -0.086639 -0.035729  0.028781     12.000000
 -0.074262 -0.028583  0.028781     12.000000
 -0.061885 -0.021438  0.028781     12.000000
 -0.049508 -0.014292  0.028781     12.000000
 -0.037131 -0.007146  0.028781     12.000000
  0.024754  0.042875  0.028781     12.000000
  0.037131  0.050021  0.028781     12.000000
  0.049508  0.057167  0.028781     12.000000
  0.061885  0.064313  0.028781     12.000000
  0.074262  0.071458  0.028781     12.000000
  0.086639  0.078604  0.028781     12.000000
  0.099016  0.085750  0.028781     12.000000
  0.111393  0.092896  0.028781     12.000000
  0.123770  0.100042  0.028781     12.000000
  0.136146  0.107188  0.028781     12.000000
  0.148523  0.114333  0.028781     12.000000
 -0.148523 -0.057167  0.028781     12.000000
 -0.136146 -0.050021  0.028781     12.000000
 -0.123770 -0.042875  0.028781     12.000000
 -0.111393 -0.035729  0.028781     12.000000
 -0.099016 -0.028583  0.028781     12.000000
 -0.086639 -0.021438  0.028781     12.000000
 -0.074262 -0.014292  0.028781     12.000000
 -0.061885 -0.007146  0.028781     12.000000
  0.037131  0.064313  0.028781     12.000000
  0.049508  0.071458  0.028781     12.000000
  0.061885  0.078604  0.028781     12.000000
  0.074262  0.085750  0.028781     12.000000
  0.086639  0.092896  0.028781     12.000000
  0.099016  0.100042  0.028781     12.000000
  0.111393  0.107188  0.028781     12.000000
  0.123770  0.114333  0.028781     12.000000
  0.136146  0.121479  0.028781     12.000000
  0.148523  0.128625  0.028781     12.000000
 -0.148523 -0.042875  0.028781     12.000000
 -0.136146 -0.035729  0.028781     12.000000
 -0.123770 -0.028583  0.028781     12.000000
 -0.111393 -0.021438  0.028781     12.000000
 -0.099016 -0.014292  0.028781     12.000000
 -0.086639 -0.007146  0.028781     12.000000
  0.049508  0.085750  0.028781     12.000000
  0.061885  0.092896  0.028781     12.000000
  0.074262  0.100042  0.028781     12.000000
  0.086639  0.107188  0.028781     12.000000
  0.099016  0.114333  0.028781     12.000000
  0.111393  0.121479  0.028781     12.000000
  0.123770  0.128625  0.028781     12.000000
  0.136146  0.135771  0.028781     12.000000
  0.148523  0.142917  0.028781     12.000000
 -0.148523 -0.028583  0.028781     12.000000
 -0.136146 -0.021438  0.028781     12.000000
 -0.123770 -0.014292  0.028781     12.000000
 -0.111393 -0.007146  0.028781     12.000000
  0.061885  0.107188  0.028781     12.000000
  0.074262  0.114333  0.028781     12.000000
  0.086639  0.121479  0.028781     12.000000
  0.099016  0.128625  0.028781     12.000000
  0.111393  0.135771  0.028781     12.000000
  0.123770  0.142917  0.028781     12.000000
  0.136146  0.150063  0.028781     12.000000
  0.148523  0.157208  0.028781     12.000000
 -0.148523 -0.014292  0.028781     12.000000
 -0.136146 -0.007146  0.028781     12.000000
  0.074262  0.128625  0.028781     12.000000
  0.086639  0.135771  0.028781     12.000000
  0.099016  0.142917  0.028781     12.000000
  0.111393  0.150063  0.028781     12.000000
  0.123770  0.157208  0.028781     12.000000
  0.136146  0.164354  0.028781     12.000000
  0.148523  0.171500  0.028781     12.000000
  0.086639  0.150063  0.028781     12.000000
  0.099016  0.157208  0.028781     12.000000
  0.111393  0.164354  0.028781     12.000000
  0.123770  0.171500  0.028781     12.000000
  0.099016  0.171500  0.028781     12.000000
  0.000000  0.000000  0.043171      2.000000
  0.012377  0.007146  0.043171      6.000000
  0.024754  0.014292  0.043171      6.000000
  0.037131  0.021438  0.043171      6.000000
  0.049508  0.028583  0.043171      6.000000
  0.061885  0.035729  0.043171      6.000000
  0.074262  0.042875  0.043171      6.000000
  0.086639  0.050021  0.043171      6.000000
  0.099016  0.057167  0.043171      6.000000
  0.111393  0.064313  0.043171      6.000000
  0.123770  0.071458  0.043171      6.000000
  0.136146  0.078604  0.043171      6.000000
  0.148523  0.085750  0.043171      6.000000
 -0.148523 -0.085750  0.043171      6.000000
 -0.136146 -0.078604  0.043171      6.000000
 -0.123770 -0.071458  0.043171      6.000000
 -0.111393 -0.064313  0.043171      6.000000
 -0.099016 -0.057167  0.043171      6.000000
 -0.086639 -0.050021  0.043171      6.000000
 -0.074262 -0.042875  0.043171      6.000000
 -0.061885 -0.035729  0.043171      6.000000
 -0.049508 -0.028583  0.043171      6.000000
 -0.037131 -0.021438  0.043171      6.000000
 -0.024754 -0.014292  0.043171      6.000000
 -0.012377 -0.007146  0.043171      6.000000
  0.012377  0.021438  0.043171     12.000000
  0.024754  0.028583  0.043171     12.000000
  0.037131  0.035729  0.043171     12.000000
  0.049508  0.042875  0.043171     12.000000
  0.061885  0.050021  0.043171     12.000000
  0.074262  0.057167  0.043171     12.000000
  0.086639  0.064313  0.043171     12.000000
  0.099016  0.071458  0.043171     12.000000
  0.111393  0.078604  0.043171     12.000000
  0.123770  0.085750  0.043171     12.000000
  0.136146  0.092896  0.043171     12.000000
  0.148523  0.100042  0.043171     12.000000
 -0.148523 -0.071458  0.043171     12.000000
 -0.136146 -0.064313  0.043171     12.000000
 -0.123770 -0.057167  0.043171     12.000000
 -0.111393 -0.050021  0.043171     12.000000
 -0.099016 -0.042875  0.043171     12.000000
 -0.086639 -0.035729  0.043171     12.000000
 -0.074262 -0.028583  0.043171     12.000000
 -0.061885 -0.021438  0.043171     12.000000
 -0.049508 -0.014292  0.043171     12.000000
 -0.037131 -0.007146  0.043171     12.000000
  0.024754  0.042875  0.043171     12.000000
  0.037131  0.050021  0.043171     12.000000
  0.049508  0.057167  0.043171     12.000000
  0.061885  0.064313  0.043171     12.000000
  0.074262  0.071458  0.043171     12.000000
  0.086639  0.078604  0.043171     12.000000
  0.099016  0.085750  0.043171     12.000000
  0.111393  0.092896  0.043171     12.000000
  0.123770  0.100042  0.043171     12.000000
  0.136146  0.107188  0.043171     12.000000
  0.148523  0.114333  0.043171     12.000000
 -0.148523 -0.057167  0.043171     12.000000
 -0.136146 -0.050021  0.043171     12.000000
 -0.123770 -0.042875  0.043171     12.000000
 -0.111393 -0.035729  0.043171     12.000000
 -0.099016 -0.028583  0.043171     12.000000
 -0.086639 -0.021438  0.043171     12.000000
 -0.074262 -0.014292  0.043171     12.000000
 -0.061885 -0.007146  0.043171     12.000000
  0.037131  0.064313  0.043171     12.000000
  0.049508  0.071458  0.043171     12.000000
  0.061885  0.078604  0.043171     12.000000
  0.074262  0.085750  0.043171     12.000000
  0.086639  0.092896  0.043171     12.000000
  0.099016  0.100042  0.043171     12.000000
  0.111393  0.107188  0.043171     12.000000
  0.123770  0.114333  0.043171     12.000000
  0.136146  0.121479  0.043171     12.000000
  0.148523  0.128625  0.043171     12.000000
 -0.148523 -0.042875  0.043171     12.000000
 -0.136146 -0.035729  0.043171     12.000000
 -0.123770 -0.028583  0.043171     12.000000
 -0.111393 -0.021438  0.043171     12.000000
 -0.099016 -0.014292  0.043171     12.000000
 -0.086639 -0.007146  0.043171     12.000000
  0.049508  0.085750  0.043171     12.000000
  0.061885  0.092896  0.043171     12.000000
  0.074262  0.100042  0.043171     12.000000
  0.086639  0.107188  0.043171     12.000000
  0.099016  0.114333  0.043171     12.000000
  0.111393  0.121479  0.043171     12.000000
  0.123770  0.128625  0.043171     12.000000
  0.136146  0.135771  0.043171     12.000000
  0.148523  0.142917  0.043171     12.000000
 -0.148523 -0.028583  0.043171     12.000000
 -0.136146 -0.021438  0.043171     12.000000
 -0.123770 -0.014292  0.043171     12.000000
 -0.111393 -0.007146  0.043171     12.000000
  0.061885  0.107188  0.043171     12.000000
  0.074262  0.114333  0.043171     12.000000
  0.086639  0.121479  0.043171     12.000000
  0.099016  0.128625  0.043171     12.000000
  0.111393  0.135771  0.043171     12.000000
  0.123770  0.142917  0.043171     12.000000
  0.136146  0.150063  0.043171     12.000000
  0.148523  0.157208  0.043171     12.000000
 -0.148523 -0.014292  0.043171     12.000000
 -0.136146 -0.007146  0.043171     12.000000
  0.074262  0.128625  0.043171     12.000000
  0.086639  0.135771  0.043171     12.000000
  0.099016  0.142917  0.043171     12.000000
  0.111393  0.150063  0.043171     12.000000
  0.123770  0.157208  0.043171     12.000000
  0.136146  0.164354  0.043171     12.000000
  0.148523  0.171500  0.043171     12.000000
  0.086639  0.150063  0.043171     12.000000
  0.099016  0.157208  0.043171     12.000000
  0.111393  0.164354  0.043171     12.000000
  0.123770  0.171500  0.043171     12.000000
  0.099016  0.171500  0.043171     12.000000
 


--------------------------------------------------------------------------------------------------------




 Dimension of arrays:
   k-points           NKPTS =    416   k-points in BZ     NKDIM =    416   number of bands    NBANDS=     24
   number of dos      NEDOS =    301   number of ions     NIONS =      4
   non local maximal  LDIM  =      6   non local SUM 2l+1 LMDIM =     18
   total plane-waves  NPLWV =  62720
   max r-space proj   IRMAX =      1   max aug-charges    IRDMAX=  29734
   dimension x,y,z NGX =    28 NGY =   28 NGZ =   80
   dimension x,y,z NGXF=    56 NGYF=   56 NGZF=  160
   support grid    NGXF=    56 NGYF=   56 NGZF=  160
   ions per type =               2   2
   NGX,Y,Z   is equivalent  to a cutoff of  14.40, 14.40, 13.40 a.u.
   NGXF,Y,Z  is equivalent  to a cutoff of  28.81, 28.81, 26.79 a.u.

 SYSTEM =  unknown system                          
 POSCAR =                                          

 Startparameter for this run:
   NWRITE =      2    write-flag & timer
   PREC   = accura    normal or accurate (medium, high low for compatibility)
   ISTART =      0    job   : 0-new  1-cont  2-samecut
   ICHARG =      2    charge: 1-file 2-atom 10-const
   ISPIN  =      1    spin polarized calculation?
   LNONCOLLINEAR =      F non collinear calculations
   LSORBIT =      F    spin-orbit coupling
   INIWAV =      1    electr: 0-lowe 1-rand  2-diag
   LASPH  =      F    aspherical Exc in radial PAW
   METAGGA=      F    non-selfconsistent MetaGGA calc.

 Electronic Relaxation 1
   ENCUT  =  550.0 eV  40.42 Ry    6.36 a.u.   6.18  6.18 18.98*2*pi/ulx,y,z
   ENINI  =  550.0     initial cutoff
   ENAUG  =  758.8 eV  augmentation charge cutoff
   NELM   =     60;   NELMIN=  2; NELMDL= -5     # of ELM steps 
   EDIFF  = 0.1E-05   stopping-criterion for ELM
   LREAL  =      F    real-space projection
   NLSPLINE    = F    spline interpolate recip. space projectors
   LCOMPAT=      F    compatible to vasp.4.4
   GGA_COMPAT  = T    GGA compatible to vasp.4.4-vasp.4.6
   LMAXPAW     = -100 max onsite density
   LMAXMIX     =    2 max onsite mixed and CHGCAR
   VOSKOWN=      0    Vosko Wilk Nusair interpolation
   ROPT   =    0.00000   0.00000
 Ionic relaxation
   EDIFFG = 0.1E-04   stopping-criterion for IOM
   NSW    =     61    number of steps for IOM
   NBLOCK =      1;   KBLOCK =     61    inner block; outer block 
   IBRION =      2    ionic relax: 0-MD 1-quasi-New 2-CG
   NFREE  =      1    steps in history (QN), initial steepest desc. (CG)
   ISIF   =      3    stress and relaxation
   IWAVPR =     11    prediction:  0-non 1-charg 2-wave 3-comb
   ISYM   =      2    0-nonsym 1-usesym 2-fastsym
   LCORR  =      T    Harris-Foulkes like correction to forces

   POTIM  = 0.5000    time-step for ionic-motion
   TEIN   =    0.0    initial temperature
   TEBEG  =    0.0;   TEEND  =   0.0 temperature during run
   SMASS  =  -3.00    Nose mass-parameter (am)
   estimated Nose-frequenzy (Omega)   =  0.10E-29 period in steps =****** mass=  -0.239E-27a.u.
   SCALEE = 1.0000    scale energy and forces
   NPACO  =    256;   APACO  = 16.0  distance and # of slots for P.C.
   PSTRESS=    0.0 pullay stress

  Mass of Ions in am
   POMASS = 112.41 24.30
  Ionic Valenz
   ZVAL   =  12.00  8.00
  Atomic Wigner-Seitz radii
   RWIGS  =  -1.00 -1.00
  virtual crystal weights 
   VCA    =   1.00  1.00
   NELECT =      40.0000    total number of electrons
   NUPDOWN=      -1.0000    fix difference up-down

 DOS related values:
   EMIN   =  10.00;   EMAX   =-10.00  energy-range for DOS
   EFERMI =   0.00
   ISMEAR =     1;   SIGMA  =   0.20  broadening in eV -4-tet -1-fermi 0-gaus

 Electronic relaxation 2 (details)
   IALGO  =     68    algorithm
   LDIAG  =      T    sub-space diagonalisation (order eigenvalues)
   LSUBROT=      F    optimize rotation matrix (better conditioning)
   TURBO    =      0    0=normal 1=particle mesh
   IRESTART =      0    0=no restart 2=restart with 2 vectors
   NREBOOT  =      0    no. of reboots
   NMIN     =      0    reboot dimension
   EREF     =   0.00    reference energy to select bands
   IMIX   =      4    mixing-type and parameters
     AMIX     =   0.40;   BMIX     =  1.00
     AMIX_MAG =   1.60;   BMIX_MAG =  1.00
     AMIN     =   0.10
     WC   =   100.;   INIMIX=   1;  MIXPRE=   1;  MAXMIX= -45

 Intra band minimization:
   WEIMIN = 0.0010     energy-eigenvalue tresh-hold
   EBREAK =  0.10E-07  absolut break condition
   DEPER  =   0.30     relativ break condition  

   TIME   =   0.40     timestep for ELM

  volume/ion in A,a.u.               =      22.45       151.49
  Fermi-wavevector in a.u.,A,eV,Ry     =   1.250289  2.362705 21.268951  1.563224
  Thomas-Fermi vector in A             =   2.384291
 
 Write flags
   LWAVE        =      F    write WAVECAR
   LDOWNSAMPLE  =      F    k-point downsampling of WAVECAR
   LCHARG       =      F    write CHGCAR
   LVTOT        =      F    write LOCPOT, total local potential
   LVHAR        =      F    write LOCPOT, Hartree potential only
   LELF         =      F    write electronic localiz. function (ELF)
   LORBIT       =      0    0 simple, 1 ext, 2 COOP (PROOUT), +10 PAW based schemes


 Dipole corrections
   LMONO  =      F    monopole corrections only (constant potential shift)
   LDIPOL =      F    correct potential (dipole corrections)
   IDIPOL =      0    1-x, 2-y, 3-z, 4-all directions 
   EPSILON=  1.0000000 bulk dielectric constant

 Exchange correlation treatment:
   GGA     =    --    GGA type
   LEXCH   =     8    internal setting for exchange type
   VOSKOWN=      0    Vosko Wilk Nusair interpolation
   LHFCALC =     F    Hartree Fock is set to
   LHFONE  =     F    Hartree Fock one center treatment
   AEXX    =    0.0000 exact exchange contribution

 Linear response parameters
   LEPSILON=     F    determine dielectric tensor
   LRPA    =     F    only Hartree local field effects (RPA)
   LNABLA  =     F    use nabla operator in PAW spheres
   LVEL    =     F    velocity operator in full k-point grid
   LINTERFAST=   F  fast interpolation
   KINTER  =     0    interpolate to denser k-point grid
   CSHIFT  =0.1000    complex shift for real part using Kramers Kronig
   OMEGAMAX=  -1.0    maximum frequency
   DEG_THRESHOLD= 0.2000000E-02 threshold for treating states as degnerate
   RTIME   =   -0.100 relaxation time in fs
  (WPLASMAI=    0.000 imaginary part of plasma frequency in eV, 0.658/RTIME)
   DFIELD  = 0.0000000 0.0000000 0.0000000 field for delta impulse in time
 
 Orbital magnetization related:
   ORBITALMAG=     F  switch on orbital magnetization
   LCHIMAG   =     F  perturbation theory with respect to B field
   DQ        =  0.001000  dq finite difference perturbation B field
   LLRAUG    =     F  two centre corrections for induced B field



--------------------------------------------------------------------------------------------------------


 conjugate gradient relaxation of ions
 charge density and potential will be updated during run
 non-spin polarized calculation
 RMM-DIIS sequential band-by-band and
  variant of blocked Davidson during initial phase
 perform sub-space diagonalisation
    before iterative eigenvector-optimisation
 modified Broyden-mixing scheme, WC =      100.0
 initial mixing is a Kerker type mixing with AMIX =  0.4000 and BMIX =      1.0000
 Hartree-type preconditioning will be used
 using additional bands            4
 reciprocal scheme for non local part
 use partial core corrections
 calculate Harris-corrections to forces 
   (improved forces if not selfconsistent)
 use gradient corrections 
 use of overlap-Matrix (Vanderbilt PP)
 Methfessel and Paxton  Order N= 1 SIGMA  =   0.20


--------------------------------------------------------------------------------------------------------


  energy-cutoff  :      550.00
  volume of cell :       89.80
      direct lattice vectors                 reciprocal lattice vectors
     3.231812896  0.000000000  0.000000000     0.309423853  0.178645944  0.000000000
    -1.615906443  2.798832070  0.000000000    -0.000000000  0.357291890  0.000000000
     0.000000000  0.000000000  9.927267023     0.000000000  0.000000000  0.100732659

  length of vectors
     3.231812896  3.231812895  9.927267023     0.357291890  0.357291890  0.100732659


 
 k-points in units of 2pi/SCALE and weight: Automatic mesh                          
   0.00000000  0.00000000  0.00000000       0.000
   0.01237695  0.00714584  0.00000000       0.001
   0.02475391  0.01429168  0.00000000       0.001
   0.03713086  0.02143751  0.00000000       0.001
   0.04950782  0.02858335  0.00000000       0.001
   0.06188477  0.03572919  0.00000000       0.001
   0.07426172  0.04287503  0.00000000       0.001
   0.08663868  0.05002086  0.00000000       0.001
   0.09901563  0.05716670  0.00000000       0.001
   0.11139259  0.06431254  0.00000000       0.001
   0.12376954  0.07145838  0.00000000       0.001
   0.13614650  0.07860422  0.00000000       0.001
   0.14852345  0.08575005  0.00000000       0.001
   0.01237695  0.02143751  0.00000000       0.001
   0.02475391  0.02858335  0.00000000       0.003
   0.03713086  0.03572919  0.00000000       0.003
   0.04950782  0.04287503  0.00000000       0.003
   0.06188477  0.05002086  0.00000000       0.003
   0.07426172  0.05716670  0.00000000       0.003
   0.08663868  0.06431254  0.00000000       0.003
   0.09901563  0.07145838  0.00000000       0.003
   0.11139259  0.07860422  0.00000000       0.003
   0.12376954  0.08575005  0.00000000       0.003
   0.13614650  0.09289589  0.00000000       0.003
   0.14852345  0.10004173  0.00000000       0.001
   0.02475391  0.04287503  0.00000000       0.001
   0.03713086  0.05002086  0.00000000       0.003
   0.04950782  0.05716670  0.00000000       0.003
   0.06188477  0.06431254  0.00000000       0.003
   0.07426172  0.07145838  0.00000000       0.003
   0.08663868  0.07860422  0.00000000       0.003
   0.09901563  0.08575005  0.00000000       0.003
   0.11139259  0.09289589  0.00000000       0.003
   0.12376954  0.10004173  0.00000000       0.003
   0.13614650  0.10718757  0.00000000       0.003
   0.03713086  0.06431254  0.00000000       0.001
   0.04950782  0.07145838  0.00000000       0.003
   0.06188477  0.07860422  0.00000000       0.003
   0.07426172  0.08575005  0.00000000       0.003
   0.08663868  0.09289589  0.00000000       0.003
   0.09901563  0.10004173  0.00000000       0.003
   0.11139259  0.10718757  0.00000000       0.003
   0.12376954  0.11433340  0.00000000       0.003
   0.13614650  0.12147924  0.00000000       0.001
   0.04950782  0.08575005  0.00000000       0.001
   0.06188477  0.09289589  0.00000000       0.003
   0.07426172  0.10004173  0.00000000       0.003
   0.08663868  0.10718757  0.00000000       0.003
   0.09901563  0.11433340  0.00000000       0.003
   0.11139259  0.12147924  0.00000000       0.003
   0.12376954  0.12862508  0.00000000       0.003
   0.06188477  0.10718757  0.00000000       0.001
   0.07426172  0.11433340  0.00000000       0.003
   0.08663868  0.12147924  0.00000000       0.003
   0.09901563  0.12862508  0.00000000       0.003
   0.11139259  0.13577092  0.00000000       0.003
   0.12376954  0.14291676  0.00000000       0.001
   0.07426172  0.12862508  0.00000000       0.001
   0.08663868  0.13577092  0.00000000       0.003
   0.09901563  0.14291676  0.00000000       0.003
   0.11139259  0.15006259  0.00000000       0.003
   0.08663868  0.15006259  0.00000000       0.001
   0.09901563  0.15720843  0.00000000       0.003
   0.11139259  0.16435427  0.00000000       0.001
   0.09901563  0.17150011  0.00000000       0.001
   0.00000000  0.00000000  0.01439038       0.000
   0.01237695  0.00714584  0.01439038       0.001
   0.02475391  0.01429168  0.01439038       0.001
   0.03713086  0.02143751  0.01439038       0.001
   0.04950782  0.02858335  0.01439038       0.001
   0.06188477  0.03572919  0.01439038       0.001
   0.07426172  0.04287503  0.01439038       0.001
   0.08663868  0.05002086  0.01439038       0.001
   0.09901563  0.05716670  0.01439038       0.001
   0.11139259  0.06431254  0.01439038       0.001
   0.12376954  0.07145838  0.01439038       0.001
   0.13614650  0.07860422  0.01439038       0.001
   0.14852345  0.08575005  0.01439038       0.001
  -0.14852345 -0.08575005  0.01439038       0.001
  -0.13614650 -0.07860422  0.01439038       0.001
  -0.12376954 -0.07145838  0.01439038       0.001
  -0.11139259 -0.06431254  0.01439038       0.001
  -0.09901563 -0.05716670  0.01439038       0.001
  -0.08663868 -0.05002086  0.01439038       0.001
  -0.07426172 -0.04287503  0.01439038       0.001
  -0.06188477 -0.03572919  0.01439038       0.001
  -0.04950782 -0.02858335  0.01439038       0.001
  -0.03713086 -0.02143751  0.01439038       0.001
  -0.02475391 -0.01429168  0.01439038       0.001
  -0.01237695 -0.00714584  0.01439038       0.001
   0.01237695  0.02143751  0.01439038       0.003
   0.02475391  0.02858335  0.01439038       0.003
   0.03713086  0.03572919  0.01439038       0.003
   0.04950782  0.04287503  0.01439038       0.003
   0.06188477  0.05002086  0.01439038       0.003
   0.07426172  0.05716670  0.01439038       0.003
   0.08663868  0.06431254  0.01439038       0.003
   0.09901563  0.07145838  0.01439038       0.003
   0.11139259  0.07860422  0.01439038       0.003
   0.12376954  0.08575005  0.01439038       0.003
   0.13614650  0.09289589  0.01439038       0.003
   0.14852345  0.10004173  0.01439038       0.003
  -0.14852345 -0.07145838  0.01439038       0.003
  -0.13614650 -0.06431254  0.01439038       0.003
  -0.12376954 -0.05716670  0.01439038       0.003
  -0.11139259 -0.05002086  0.01439038       0.003
  -0.09901563 -0.04287503  0.01439038       0.003
  -0.08663868 -0.03572919  0.01439038       0.003
  -0.07426172 -0.02858335  0.01439038       0.003
  -0.06188477 -0.02143751  0.01439038       0.003
  -0.04950782 -0.01429168  0.01439038       0.003
  -0.03713086 -0.00714584  0.01439038       0.003
   0.02475391  0.04287503  0.01439038       0.003
   0.03713086  0.05002086  0.01439038       0.003
   0.04950782  0.05716670  0.01439038       0.003
   0.06188477  0.06431254  0.01439038       0.003
   0.07426172  0.07145838  0.01439038       0.003
   0.08663868  0.07860422  0.01439038       0.003
   0.09901563  0.08575005  0.01439038       0.003
   0.11139259  0.09289589  0.01439038       0.003
   0.12376954  0.10004173  0.01439038       0.003
   0.13614650  0.10718757  0.01439038       0.003
   0.14852345  0.11433340  0.01439038       0.003
  -0.14852345 -0.05716670  0.01439038       0.003
  -0.13614650 -0.05002086  0.01439038       0.003
  -0.12376954 -0.04287503  0.01439038       0.003
  -0.11139259 -0.03572919  0.01439038       0.003
  -0.09901563 -0.02858335  0.01439038       0.003
  -0.08663868 -0.02143751  0.01439038       0.003
  -0.07426172 -0.01429168  0.01439038       0.003
  -0.06188477 -0.00714584  0.01439038       0.003
   0.03713086  0.06431254  0.01439038       0.003
   0.04950782  0.07145838  0.01439038       0.003
   0.06188477  0.07860422  0.01439038       0.003
   0.07426172  0.08575005  0.01439038       0.003
   0.08663868  0.09289589  0.01439038       0.003
   0.09901563  0.10004173  0.01439038       0.003
   0.11139259  0.10718757  0.01439038       0.003
   0.12376954  0.11433340  0.01439038       0.003
   0.13614650  0.12147924  0.01439038       0.003
   0.14852345  0.12862508  0.01439038       0.003
  -0.14852345 -0.04287503  0.01439038       0.003
  -0.13614650 -0.03572919  0.01439038       0.003
  -0.12376954 -0.02858335  0.01439038       0.003
  -0.11139259 -0.02143751  0.01439038       0.003
  -0.09901563 -0.01429168  0.01439038       0.003
  -0.08663868 -0.00714584  0.01439038       0.003
   0.04950782  0.08575005  0.01439038       0.003
   0.06188477  0.09289589  0.01439038       0.003
   0.07426172  0.10004173  0.01439038       0.003
   0.08663868  0.10718757  0.01439038       0.003
   0.09901563  0.11433340  0.01439038       0.003
   0.11139259  0.12147924  0.01439038       0.003
   0.12376954  0.12862508  0.01439038       0.003
   0.13614650  0.13577092  0.01439038       0.003
   0.14852345  0.14291676  0.01439038       0.003
  -0.14852345 -0.02858335  0.01439038       0.003
  -0.13614650 -0.02143751  0.01439038       0.003
  -0.12376954 -0.01429168  0.01439038       0.003
  -0.11139259 -0.00714584  0.01439038       0.003
   0.06188477  0.10718757  0.01439038       0.003
   0.07426172  0.11433340  0.01439038       0.003
   0.08663868  0.12147924  0.01439038       0.003
   0.09901563  0.12862508  0.01439038       0.003
   0.11139259  0.13577092  0.01439038       0.003
   0.12376954  0.14291676  0.01439038       0.003
   0.13614650  0.15006259  0.01439038       0.003
   0.14852345  0.15720843  0.01439038       0.003
  -0.14852345 -0.01429168  0.01439038       0.003
  -0.13614650 -0.00714584  0.01439038       0.003
   0.07426172  0.12862508  0.01439038       0.003
   0.08663868  0.13577092  0.01439038       0.003
   0.09901563  0.14291676  0.01439038       0.003
   0.11139259  0.15006259  0.01439038       0.003
   0.12376954  0.15720843  0.01439038       0.003
   0.13614650  0.16435427  0.01439038       0.003
   0.14852345  0.17150011  0.01439038       0.003
   0.08663868  0.15006259  0.01439038       0.003
   0.09901563  0.15720843  0.01439038       0.003
   0.11139259  0.16435427  0.01439038       0.003
   0.12376954  0.17150011  0.01439038       0.003
   0.09901563  0.17150011  0.01439038       0.003
   0.00000000  0.00000000  0.02878076       0.000
   0.01237695  0.00714584  0.02878076       0.001
   0.02475391  0.01429168  0.02878076       0.001
   0.03713086  0.02143751  0.02878076       0.001
   0.04950782  0.02858335  0.02878076       0.001
   0.06188477  0.03572919  0.02878076       0.001
   0.07426172  0.04287503  0.02878076       0.001
   0.08663868  0.05002086  0.02878076       0.001
   0.09901563  0.05716670  0.02878076       0.001
   0.11139259  0.06431254  0.02878076       0.001
   0.12376954  0.07145838  0.02878076       0.001
   0.13614650  0.07860422  0.02878076       0.001
   0.14852345  0.08575005  0.02878076       0.001
  -0.14852345 -0.08575005  0.02878076       0.001
  -0.13614650 -0.07860422  0.02878076       0.001
  -0.12376954 -0.07145838  0.02878076       0.001
  -0.11139259 -0.06431254  0.02878076       0.001
  -0.09901563 -0.05716670  0.02878076       0.001
  -0.08663868 -0.05002086  0.02878076       0.001
  -0.07426172 -0.04287503  0.02878076       0.001
  -0.06188477 -0.03572919  0.02878076       0.001
  -0.04950782 -0.02858335  0.02878076       0.001
  -0.03713086 -0.02143751  0.02878076       0.001
  -0.02475391 -0.01429168  0.02878076       0.001
  -0.01237695 -0.00714584  0.02878076       0.001
   0.01237695  0.02143751  0.02878076       0.003
   0.02475391  0.02858335  0.02878076       0.003
   0.03713086  0.03572919  0.02878076       0.003
   0.04950782  0.04287503  0.02878076       0.003
   0.06188477  0.05002086  0.02878076       0.003
   0.07426172  0.05716670  0.02878076       0.003
   0.08663868  0.06431254  0.02878076       0.003
   0.09901563  0.07145838  0.02878076       0.003
   0.11139259  0.07860422  0.02878076       0.003
   0.12376954  0.08575005  0.02878076       0.003
   0.13614650  0.09289589  0.02878076       0.003
   0.14852345  0.10004173  0.02878076       0.003
  -0.14852345 -0.07145838  0.02878076       0.003
  -0.13614650 -0.06431254  0.02878076       0.003
  -0.12376954 -0.05716670  0.02878076       0.003
  -0.11139259 -0.05002086  0.02878076       0.003
  -0.09901563 -0.04287503  0.02878076       0.003
  -0.08663868 -0.03572919  0.02878076       0.003
  -0.07426172 -0.02858335  0.02878076       0.003
  -0.06188477 -0.02143751  0.02878076       0.003
  -0.04950782 -0.01429168  0.02878076       0.003
  -0.03713086 -0.00714584  0.02878076       0.003
   0.02475391  0.04287503  0.02878076       0.003
   0.03713086  0.05002086  0.02878076       0.003
   0.04950782  0.05716670  0.02878076       0.003
   0.06188477  0.06431254  0.02878076       0.003
   0.07426172  0.07145838  0.02878076       0.003
   0.08663868  0.07860422  0.02878076       0.003
   0.09901563  0.08575005  0.02878076       0.003
   0.11139259  0.09289589  0.02878076       0.003
   0.12376954  0.10004173  0.02878076       0.003
   0.13614650  0.10718757  0.02878076       0.003
   0.14852345  0.11433340  0.02878076       0.003
  -0.14852345 -0.05716670  0.02878076       0.003
  -0.13614650 -0.05002086  0.02878076       0.003
  -0.12376954 -0.04287503  0.02878076       0.003
  -0.11139259 -0.03572919  0.02878076       0.003
  -0.09901563 -0.02858335  0.02878076       0.003
  -0.08663868 -0.02143751  0.02878076       0.003
  -0.07426172 -0.01429168  0.02878076       0.003
  -0.06188477 -0.00714584  0.02878076       0.003
   0.03713086  0.06431254  0.02878076       0.003
   0.04950782  0.07145838  0.02878076       0.003
   0.06188477  0.07860422  0.02878076       0.003
   0.07426172  0.08575005  0.02878076       0.003
   0.08663868  0.09289589  0.02878076       0.003
   0.09901563  0.10004173  0.02878076       0.003
   0.11139259  0.10718757  0.02878076       0.003
   0.12376954  0.11433340  0.02878076       0.003
   0.13614650  0.12147924  0.02878076       0.003
   0.14852345  0.12862508  0.02878076       0.003
  -0.14852345 -0.04287503  0.02878076       0.003
  -0.13614650 -0.03572919  0.02878076       0.003
  -0.12376954 -0.02858335  0.02878076       0.003
  -0.11139259 -0.02143751  0.02878076       0.003
  -0.09901563 -0.01429168  0.02878076       0.003
  -0.08663868 -0.00714584  0.02878076       0.003
   0.04950782  0.08575005  0.02878076       0.003
   0.06188477  0.09289589  0.02878076       0.003
   0.07426172  0.10004173  0.02878076       0.003
   0.08663868  0.10718757  0.02878076       0.003
   0.09901563  0.11433340  0.02878076       0.003
   0.11139259  0.12147924  0.02878076       0.003
   0.12376954  0.12862508  0.02878076       0.003
   0.13614650  0.13577092  0.02878076       0.003
   0.14852345  0.14291676  0.02878076       0.003
  -0.14852345 -0.02858335  0.02878076       0.003
  -0.13614650 -0.02143751  0.02878076       0.003
  -0.12376954 -0.01429168  0.02878076       0.003
  -0.11139259 -0.00714584  0.02878076       0.003
   0.06188477  0.10718757  0.02878076       0.003
   0.07426172  0.11433340  0.02878076       0.003
   0.08663868  0.12147924  0.02878076       0.003
   0.09901563  0.12862508  0.02878076       0.003
   0.11139259  0.13577092  0.02878076       0.003
   0.12376954  0.14291676  0.02878076       0.003
   0.13614650  0.15006259  0.02878076       0.003
   0.14852345  0.15720843  0.02878076       0.003
  -0.14852345 -0.01429168  0.02878076       0.003
  -0.13614650 -0.00714584  0.02878076       0.003
   0.07426172  0.12862508  0.02878076       0.003
   0.08663868  0.13577092  0.02878076       0.003
   0.09901563  0.14291676  0.02878076       0.003
   0.11139259  0.15006259  0.02878076       0.003
   0.12376954  0.15720843  0.02878076       0.003
   0.13614650  0.16435427  0.02878076       0.003
   0.14852345  0.17150011  0.02878076       0.003
   0.08663868  0.15006259  0.02878076       0.003
   0.09901563  0.15720843  0.02878076       0.003
   0.11139259  0.16435427  0.02878076       0.003
   0.12376954  0.17150011  0.02878076       0.003
   0.09901563  0.17150011  0.02878076       0.003
   0.00000000  0.00000000  0.04317114       0.000
   0.01237695  0.00714584  0.04317114       0.001
   0.02475391  0.01429168  0.04317114       0.001
   0.03713086  0.02143751  0.04317114       0.001
   0.04950782  0.02858335  0.04317114       0.001
   0.06188477  0.03572919  0.04317114       0.001
   0.07426172  0.04287503  0.04317114       0.001
   0.08663868  0.05002086  0.04317114       0.001
   0.09901563  0.05716670  0.04317114       0.001
   0.11139259  0.06431254  0.04317114       0.001
   0.12376954  0.07145838  0.04317114       0.001
   0.13614650  0.07860422  0.04317114       0.001
   0.14852345  0.08575005  0.04317114       0.001
  -0.14852345 -0.08575005  0.04317114       0.001
  -0.13614650 -0.07860422  0.04317114       0.001
  -0.12376954 -0.07145838  0.04317114       0.001
  -0.11139259 -0.06431254  0.04317114       0.001
  -0.09901563 -0.05716670  0.04317114       0.001
  -0.08663868 -0.05002086  0.04317114       0.001
  -0.07426172 -0.04287503  0.04317114       0.001
  -0.06188477 -0.03572919  0.04317114       0.001
  -0.04950782 -0.02858335  0.04317114       0.001
  -0.03713086 -0.02143751  0.04317114       0.001
  -0.02475391 -0.01429168  0.04317114       0.001
  -0.01237695 -0.00714584  0.04317114       0.001
   0.01237695  0.02143751  0.04317114       0.003
   0.02475391  0.02858335  0.04317114       0.003
   0.03713086  0.03572919  0.04317114       0.003
   0.04950782  0.04287503  0.04317114       0.003
   0.06188477  0.05002086  0.04317114       0.003
   0.07426172  0.05716670  0.04317114       0.003
   0.08663868  0.06431254  0.04317114       0.003
   0.09901563  0.07145838  0.04317114       0.003
   0.11139259  0.07860422  0.04317114       0.003
   0.12376954  0.08575005  0.04317114       0.003
   0.13614650  0.09289589  0.04317114       0.003
   0.14852345  0.10004173  0.04317114       0.003
  -0.14852345 -0.07145838  0.04317114       0.003
  -0.13614650 -0.06431254  0.04317114       0.003
  -0.12376954 -0.05716670  0.04317114       0.003
  -0.11139259 -0.05002086  0.04317114       0.003
  -0.09901563 -0.04287503  0.04317114       0.003
  -0.08663868 -0.03572919  0.04317114       0.003
  -0.07426172 -0.02858335  0.04317114       0.003
  -0.06188477 -0.02143751  0.04317114       0.003
  -0.04950782 -0.01429168  0.04317114       0.003
  -0.03713086 -0.00714584  0.04317114       0.003
   0.02475391  0.04287503  0.04317114       0.003
   0.03713086  0.05002086  0.04317114       0.003
   0.04950782  0.05716670  0.04317114       0.003
   0.06188477  0.06431254  0.04317114       0.003
   0.07426172  0.07145838  0.04317114       0.003
   0.08663868  0.07860422  0.04317114       0.003
   0.09901563  0.08575005  0.04317114       0.003
   0.11139259  0.09289589  0.04317114       0.003
   0.12376954  0.10004173  0.04317114       0.003
   0.13614650  0.10718757  0.04317114       0.003
   0.14852345  0.11433340  0.04317114       0.003
  -0.14852345 -0.05716670  0.04317114       0.003
  -0.13614650 -0.05002086  0.04317114       0.003
  -0.12376954 -0.04287503  0.04317114       0.003
  -0.11139259 -0.03572919  0.04317114       0.003
  -0.09901563 -0.02858335  0.04317114       0.003
  -0.08663868 -0.02143751  0.04317114       0.003
  -0.07426172 -0.01429168  0.04317114       0.003
  -0.06188477 -0.00714584  0.04317114       0.003
   0.03713086  0.06431254  0.04317114       0.003
   0.04950782  0.07145838  0.04317114       0.003
   0.06188477  0.07860422  0.04317114       0.003
   0.07426172  0.08575005  0.04317114       0.003
   0.08663868  0.09289589  0.04317114       0.003
   0.09901563  0.10004173  0.04317114       0.003
[...]
  band No.  band energies     occupation 
      1     -40.3100      2.00000
      2     -40.3089      2.00000
      3     -40.3034      2.00000
      4     -40.2988      2.00000
      5     -40.2971      2.00000
      6     -40.2939      2.00000
      7      -6.7000      2.00000
      8      -6.6601      2.00000
      9      -6.5659      2.00000
     10      -6.4202      2.00000
     11      -6.3972      2.00000
     12      -6.2219      2.00000
     13      -6.0914      2.00000
     14      -6.0261      2.00000
     15      -5.9770      2.00000
     16      -5.8159      2.00000
     17      -0.8439      2.00000
     18      -0.3121      2.00000
     19       2.1340      2.00676
     20       2.7839     -0.05162
     21       3.2785     -0.00001
     22       3.7596     -0.00000
     23       4.1784     -0.00000
     24       4.7734     -0.00000

 k-point   407 :       0.3200    0.2400    0.4286
  band No.  band energies     occupation 
      1     -40.3102      2.00000
      2     -40.3090      2.00000
      3     -40.3040      2.00000
      4     -40.2999      2.00000
      5     -40.2967      2.00000
      6     -40.2943      2.00000
      7      -6.7152      2.00000
      8      -6.6449      2.00000
      9      -6.5698      2.00000
     10      -6.4389      2.00000
     11      -6.3839      2.00000
     12      -6.1930      2.00000
     13      -6.0953      2.00000
     14      -6.0277      2.00000
     15      -5.9616      2.00000
     16      -5.8371      2.00000
     17      -0.1215      2.00000
     18       0.3266      2.00000
     19       2.2577      2.04389
     20       2.4941      1.67364
     21       3.0366     -0.00607
     22       3.5565     -0.00000
     23       4.0426     -0.00000
     24       4.7270     -0.00000

 k-point   408 :       0.3600    0.2400    0.4286
  band No.  band energies     occupation 
      1     -40.3103      2.00000
      2     -40.3090      2.00000
      3     -40.3043      2.00000
      4     -40.3004      2.00000
      5     -40.2963      2.00000
      6     -40.2946      2.00000
      7      -6.7232      2.00000
      8      -6.6331      2.00000
      9      -6.5761      2.00000
     10      -6.4512      2.00000
     11      -6.3748      2.00000
     12      -6.1591      2.00000
     13      -6.1227      2.00000
     14      -6.0296      2.00000
     15      -5.9215      2.00000
     16      -5.8716      2.00000
     17       0.6381      2.00000
     18       0.9898      2.00000
     19       1.5211      2.00000
     20       1.7948      2.00000
     21       3.5982     -0.00000
     22       3.6928     -0.00000
     23       4.0327     -0.00000
     24       4.5816     -0.00000

 k-point   409 :       0.4000    0.2400    0.4286
  band No.  band energies     occupation 
      1     -40.3104      2.00000
      2     -40.3090      2.00000
      3     -40.3043      2.00000
      4     -40.3004      2.00000
      5     -40.2963      2.00000
      6     -40.2947      2.00000
      7      -6.7232      2.00000
      8      -6.6331      2.00000
      9      -6.5761      2.00000
     10      -6.4513      2.00000
     11      -6.3748      2.00000
     12      -6.1591      2.00000
     13      -6.1228      2.00000
     14      -6.0296      2.00000
     15      -5.9216      2.00000
     16      -5.8716      2.00000
     17       0.6363      2.00000
     18       0.9865      2.00000
     19       1.5588      2.00000
     20       1.7664      2.00000
     21       3.3742     -0.00000
     22       3.9828     -0.00000
     23       4.1198     -0.00000
     24       4.4524     -0.00000

 k-point   410 :       0.4400    0.2400    0.4286
  band No.  band energies     occupation 
      1     -40.3102      2.00000
      2     -40.3090      2.00000
      3     -40.3040      2.00000
      4     -40.2998      2.00000
      5     -40.2967      2.00000
      6     -40.2943      2.00000
      7      -6.7151      2.00000
      8      -6.6450      2.00000
      9      -6.5697      2.00000
     10      -6.4389      2.00000
     11      -6.3840      2.00000
     12      -6.1930      2.00000
     13      -6.0954      2.00000
     14      -6.0277      2.00000
     15      -5.9617      2.00000
     16      -5.8371      2.00000
     17      -0.1228      2.00000
     18       0.3290      2.00000
     19       2.3427      2.07071
     20       2.4690      1.80990
     21       2.8352     -0.07048
     22       3.6736     -0.00000
     23       4.2309     -0.00000
     24       4.5740     -0.00000

 k-point   411 :       0.4800    0.2400    0.4286
  band No.  band energies     occupation 
      1     -40.3100      2.00000
      2     -40.3089      2.00000
      3     -40.3034      2.00000
      4     -40.2988      2.00000
      5     -40.2971      2.00000
      6     -40.2939      2.00000
      7      -6.6999      2.00000
      8      -6.6602      2.00000
      9      -6.5658      2.00000
     10      -6.4203      2.00000
     11      -6.3972      2.00000
     12      -6.2219      2.00000
     13      -6.0914      2.00000
     14      -6.0261      2.00000
     15      -5.9770      2.00000
     16      -5.8159      2.00000
     17      -0.8443      2.00000
     18      -0.3109      2.00000
     19       2.1537      2.00976
     20       2.7321      0.04916
     21       3.3105     -0.00000
     22       3.6728     -0.00000
     23       4.4028     -0.00000
     24       4.6404     -0.00000

 k-point   412 :       0.2800    0.2800    0.4286
  band No.  band energies     occupation 
      1     -40.3098      2.00000
      2     -40.3087      2.00000
      3     -40.3045      2.00000
      4     -40.3000      2.00000
      5     -40.2968      2.00000
      6     -40.2943      2.00000
      7      -6.7014      2.00000
      8      -6.6412      2.00000
      9      -6.5533      2.00000
     10      -6.4097      2.00000
     11      -6.3897      2.00000
     12      -6.2022      2.00000
     13      -6.1293      2.00000
     14      -6.0367      2.00000
     15      -5.9726      2.00000
     16      -5.8371      2.00000
     17      -0.1562      2.00000
     18       0.2991      2.00000
     19       2.5945      0.89894
     20       2.9293     -0.03418
     21       3.0070     -0.01056
     22       3.4506     -0.00000
     23       3.5830     -0.00000
     24       4.4372     -0.00000

 k-point   413 :       0.3200    0.2800    0.4286
  band No.  band energies     occupation 
      1     -40.3095      2.00000
      2     -40.3084      2.00000
      3     -40.3055      2.00000
      4     -40.3010      2.00000
      5     -40.2964      2.00000
      6     -40.2948      2.00000
      7      -6.7039      2.00000
      8      -6.6195      2.00000
      9      -6.5625      2.00000
     10      -6.4075      2.00000
     11      -6.3543      2.00000
     12      -6.1965      2.00000
     13      -6.1666      2.00000
     14      -6.0386      2.00000
     15      -5.9517      2.00000
     16      -5.8704      2.00000
     17       0.5745      2.00000
     18       0.9463      2.00000
     19       2.1763      2.01443
     20       2.4257      1.97165
     21       3.0939     -0.00179
     22       3.3081     -0.00000
     23       3.6300     -0.00000
     24       4.8029     -0.00000

 k-point   414 :       0.3600    0.2800    0.4286
  band No.  band energies     occupation 
      1     -40.3093      2.00000
      2     -40.3083      2.00000
      3     -40.3059      2.00000
      4     -40.3014      2.00000
      5     -40.2961      2.00000
      6     -40.2951      2.00000
      7      -6.7050      2.00000
      8      -6.6047      2.00000
      9      -6.5747      2.00000
     10      -6.4079      2.00000
     11      -6.3292      2.00000
     12      -6.2106      2.00000
     13      -6.1746      2.00000
     14      -6.0379      2.00000
     15      -5.9267      2.00000
     16      -5.8996      2.00000
     17       1.1963      2.00000
     18       1.3755      2.00000
     19       1.7189      2.00000
     20       1.8369      2.00000
     21       3.0186     -0.00855
     22       3.2903     -0.00001
     23       4.2455     -0.00000
     24       4.4959     -0.00000

 k-point   415 :       0.4000    0.2800    0.4286
  band No.  band energies     occupation 
      1     -40.3095      2.00000
      2     -40.3084      2.00000
      3     -40.3055      2.00000
      4     -40.3010      2.00000
      5     -40.2963      2.00000
      6     -40.2948      2.00000
      7      -6.7039      2.00000
      8      -6.6196      2.00000
      9      -6.5624      2.00000
     10      -6.4075      2.00000
     11      -6.3543      2.00000
     12      -6.1965      2.00000
     13      -6.1666      2.00000
     14      -6.0386      2.00000
     15      -5.9517      2.00000
     16      -5.8704      2.00000
     17       0.5738      2.00000
     18       0.9461      2.00000
     19       2.2376      2.03496
     20       2.3727      2.05901
     21       2.9913     -0.01385
     22       3.3625     -0.00000
     23       3.7066     -0.00000
     24       4.7640     -0.00000

 k-point   416 :       0.3200    0.3200    0.4286
  band No.  band energies     occupation 
      1     -40.3084      2.00000
      2     -40.3080      2.00000
      3     -40.3069      2.00000
      4     -40.3018      2.00000
      5     -40.2959      2.00000
      6     -40.2953      2.00000
      7      -6.6965      2.00000
      8      -6.5992      2.00000
      9      -6.5765      2.00000
     10      -6.3450      2.00000
     11      -6.3356      2.00000
     12      -6.2521      2.00000
     13      -6.1886      2.00000
     14      -6.0390      2.00000
     15      -5.9357      2.00000
     16      -5.9055      2.00000
     17       1.2654      2.00000
     18       1.5172      2.00000
     19       2.0963      2.00313
     20       2.2691      2.04917
     21       2.4896      1.70001
     22       2.6965      0.18788
     23       4.3011     -0.00000
     24       4.9436     -0.00000


--------------------------------------------------------------------------------------------------------


 soft charge-density along one line, spin component           1
         0         1         2         3         4         5         6         7         8         9
 total charge-density along one line
 
 pseudopotential strength for first ion, spin component:           1
-18.191  -0.000  -0.000   0.001  -0.000 -18.222  -0.000  -0.000
 -0.000 -18.194   0.000   0.000   0.001  -0.000 -18.225   0.000
 -0.000   0.000 -18.192  -0.000   0.000  -0.000   0.000 -18.223
  0.001   0.000  -0.000 -18.194  -0.000   0.001   0.000  -0.000
 -0.000   0.001   0.000  -0.000 -18.191  -0.000   0.001   0.000
-18.222  -0.000  -0.000   0.001  -0.000 -18.234  -0.000  -0.000
 -0.000 -18.225   0.000   0.000   0.001  -0.000 -18.236   0.000
 -0.000   0.000 -18.223  -0.000   0.000  -0.000   0.000 -18.234
  0.001   0.000  -0.000 -18.225  -0.000   0.001   0.000  -0.000
 -0.000   0.001   0.000  -0.000 -18.222  -0.000   0.001   0.000
 -0.000  -0.000   0.002   0.000   0.000  -0.000  -0.000   0.002
 -0.000  -0.000   0.002   0.000   0.000  -0.000  -0.000   0.002
 -0.000  -0.007  -0.000   0.000   0.000  -0.000  -0.007  -0.000
  0.000   0.000  -0.008  -0.000  -0.000   0.000   0.000  -0.008
  0.000   0.000   0.000  -0.007  -0.000   0.000   0.000   0.000
 -0.000  -0.007  -0.000   0.000   0.000  -0.000  -0.007  -0.000
  0.000   0.000  -0.009  -0.000  -0.000   0.000   0.000  -0.009
  0.000   0.000   0.000  -0.007  -0.000   0.000   0.000   0.000
 total augmentation occupancy for first ion, spin component:           1
  3.099  -0.000  -0.000   0.091   0.000  -0.985   0.000   0.000  -0.079  -0.000   0.000   0.000  -0.000  -0.000   0.070   0.000
 -0.000   2.788   0.000   0.000   0.091   0.000  -0.734  -0.000  -0.000  -0.079  -0.000   0.000   0.027   0.000   0.000  -0.021
 -0.000   0.000   3.110  -0.000   0.000   0.000  -0.000  -1.031   0.000  -0.000  -0.133  -0.033   0.000   0.015  -0.000  -0.000
  0.091   0.000  -0.000   2.788   0.000  -0.079  -0.000   0.000  -0.734  -0.000  -0.000  -0.000   0.000  -0.000   0.027  -0.000
  0.000   0.091   0.000   0.000   3.099  -0.000  -0.079  -0.000  -0.000  -0.985  -0.000  -0.000   0.070   0.000   0.000  -0.009
 -0.985   0.000   0.000  -0.079   0.000   0.861  -0.000  -0.000   0.068  -0.000  -0.000  -0.000   0.000  -0.000  -0.067  -0.000
  0.000  -0.734  -0.000  -0.000  -0.079  -0.000   0.665   0.000   0.000   0.068   0.000   0.000  -0.006  -0.000  -0.000   0.004
  0.000  -0.000  -1.031   0.000  -0.000  -0.000   0.000   0.938  -0.000   0.000   0.141   0.020  -0.000   0.009   0.000   0.000
 -0.079  -0.000   0.000  -0.734  -0.000   0.068   0.000  -0.000   0.665   0.000   0.000   0.000  -0.000   0.000  -0.006   0.000
 -0.000  -0.079  -0.000  -0.000  -0.985  -0.000   0.068   0.000   0.000   0.861   0.000   0.000  -0.067   0.000  -0.000   0.010
  0.000  -0.000  -0.133  -0.000  -0.000  -0.000   0.000   0.141   0.000   0.000   2.699  -0.603   0.000   0.029  -0.000   0.000
  0.000  -0.000  -0.033  -0.000  -0.000  -0.000  -0.000   0.020   0.000   0.000  -0.603   0.222   0.000   0.010   0.000  -0.000
 -0.000   0.027   0.000   0.000   0.070   0.000  -0.006  -0.000  -0.000  -0.067  -0.000   0.000   0.173   0.000   0.000  -0.029
 -0.000  -0.000   0.015  -0.000   0.000  -0.000  -0.000   0.009  -0.000   0.000   0.029   0.010   0.000   0.199   0.000  -0.000
  0.070   0.000  -0.000   0.027   0.000  -0.067  -0.000   0.000  -0.006  -0.000  -0.000   0.000   0.000   0.000   0.173  -0.000
  0.000  -0.021  -0.000  -0.000  -0.009  -0.000   0.004   0.000   0.000   0.010   0.000  -0.000  -0.029  -0.000  -0.000   0.006
  0.000   0.000  -0.028   0.000  -0.000  -0.000  -0.000   0.007  -0.000   0.000  -0.005  -0.003  -0.000  -0.030  -0.000   0.000
 -0.009  -0.000   0.000  -0.021  -0.000   0.010   0.000  -0.000   0.004   0.000   0.000  -0.000  -0.000  -0.000  -0.029   0.000


------------------------ aborting loop because EDIFF is reached ----------------------------------------


    CHARGE:  cpu time    0.9520: real time    0.9561
    FORLOC:  cpu time    0.0027: real time    0.0027
    FORNL :  cpu time    1.9568: real time    1.9647
    STRESS:  cpu time    2.0971: real time    2.1077
    FORCOR:  cpu time    0.0330: real time    0.0332
    FORHAR:  cpu time    0.0090: real time    0.0091
    MIXING:  cpu time    0.0012: real time    0.0012
    OFIELD:  cpu time    0.0000: real time    0.0000

  FORCE on cell =-STRESS in cart. coord.  units (eV):
  Direction    XX          YY          ZZ          XY          YZ          ZX
  --------------------------------------------------------------------------------------
  Alpha Z   227.42753   227.42753   227.42753
  Ewald    -878.30298  -878.30298 -1138.87947     0.00000     0.00000    -0.00000
  Hartree   523.36522   523.36522   271.20557     0.00000     0.00000    -0.00000
  E(xc)    -218.02179  -218.02182  -217.91710    -0.00003    -0.00000     0.00000
  Local      31.33270    31.33262   545.23216    -0.00007    -0.00000     0.00000
  n-local  -292.18453  -294.21694  -292.83430     2.15005     0.01378     0.05722
  augment   118.09008   118.09019   117.83315     0.00009     0.00000    -0.00000
  Kinetic   497.43435   481.20765   487.93734    17.08231    -0.26604    -0.03073
  Fock        0.00000     0.00000     0.00000     0.00000     0.00000     0.00000
  -------------------------------------------------------------------------------------
  Total       0.01103     0.01103     0.00488     0.00000     0.00000    -0.00000
  in kB       0.19685     0.19685     0.08709     0.00000     0.00000    -0.00000
  external pressure =        0.16 kB  Pullay stress =        0.00 kB


 VOLUME and BASIS-vectors are now :
 -----------------------------------------------------------------------------
  energy-cutoff  :      550.00
  volume of cell :       89.75
      direct lattice vectors                 reciprocal lattice vectors
     3.231404817  0.000000000  0.000000000     0.309462929  0.178668505 -0.000000000
    -1.615702403  2.798478663  0.000000000    -0.000000000  0.357337011 -0.000000000
     0.000000000  0.000000000  9.924846614    -0.000000000 -0.000000000  0.100757225

  length of vectors
     3.231404817  3.231404816  9.924846614     0.357337011  0.357337011  0.100757225


 FORCES acting on ions
    electron-ion (+dipol)            ewald-force                    non-local-force                 convergence-correction
 -----------------------------------------------------------------------------------------------
   0.328E-05 -.255E-05 -.222E+03   0.649E-06 -.546E-06 0.223E+03   -.694E-17 -.162E-19 -.125E+01   0.340E-09 -.189E-09 -.249E-02
   -.455E-05 0.328E-05 0.222E+03   -.649E-06 0.546E-06 -.223E+03   -.694E-17 0.162E-19 0.125E+01   -.332E-09 0.183E-09 0.249E-02
   0.364E-05 -.305E-05 0.173E+03   0.435E-06 -.366E-06 -.174E+03   0.104E-16 0.348E-17 0.851E+00   0.351E-09 -.195E-09 0.183E-02
   -.473E-05 0.368E-05 -.173E+03   -.435E-06 0.366E-06 0.174E+03   -.347E-17 -.110E-19 -.851E+00   -.345E-09 0.190E-09 -.183E-02
 -----------------------------------------------------------------------------------------------
   -.237E-05 0.137E-05 0.182E-06   0.161E-13 0.188E-13 0.000E+00   -.694E-17 0.347E-17 0.000E+00   0.138E-10 -.963E-11 -.710E-11
 
 
 POSITION                                       TOTAL-FORCE (eV/Angst)
 -----------------------------------------------------------------------------------
     -0.00000      1.86565      3.73602         0.000000      0.000000      0.002667
      1.61570      0.93283      1.22640        -0.000000     -0.000000     -0.002667
     -0.00000      1.86565      8.71494        -0.000000     -0.000000     -0.002839
      1.61570      0.93283      6.17233         0.000000      0.000000      0.002839
 -----------------------------------------------------------------------------------
    total drift:                               -0.000002      0.000001      0.000000


--------------------------------------------------------------------------------------------------------



  FREE ENERGIE OF THE ION-ELECTRON SYSTEM (eV)
  ---------------------------------------------------
  free  energy   TOTEN  =        -4.63652802 eV

  energy  without entropy=       -4.63592813  energy(sigma->0) =       -4.63632806
 
 d Force =-0.7640076E-07[-0.894E-07,-0.634E-07]  d Energy = 0.2481884E-06-0.325E-06
 d Force =-0.6554909E-02[-0.655E-02,-0.655E-02]  d Ewald  =-0.4381591E-01 0.373E-01


--------------------------------------------------------------------------------------------------------


    POTLOK:  cpu time    0.0334: real time    0.0337


--------------------------------------------------------------------------------------------------------




--------------------------------------------------------------------------------------------------------


  
 reached required accuracy - stopping structural energy minimisation
     LOOP+:  cpu time   23.0356: real time   23.2670
    4ORBIT:  cpu time    0.0000: real time    0.0000

 total amount of memory used by VASP MPI-rank0   165866. kBytes
=======================================================================

   base      :      30000. kBytes
   nonl-proj :      53223. kBytes
   fftplans  :       3315. kBytes
   grid      :       5512. kBytes
   one-center:         15. kBytes
   wavefun   :      73801. kBytes
 
  
  
 General timing and accounting informations for this job:
 ========================================================
  
                  Total CPU time used (sec):      208.383
                            User time (sec):      207.365
                          System time (sec):        1.018
                         Elapsed time (sec):      210.845
  
                   Maximum memory used (kb):      294572.
                   Average memory used (kb):           0.
  
                          Minor page faults:       475483
                          Major page faults:           28
                 Voluntary context switches:         2316
